9.543965000000000032e+00 0.000000000000000000e+00 0.000000000000000000e+00 -4.630939999999999834e+00 7.928709999999999702e+00 0.000000000000000000e+00 -1.903390000000000082e-01 -2.066550000000000054e-01 6.985731999999999609e+00
9.164866999999999209e+00 0.000000000000000000e+00 0.000000000000000000e+00 -4.509457000000000271e+00 8.263367000000000573e+00 0.000000000000000000e+00 -5.421700000000000130e-02 -1.629649999999999987e-01 6.855980999999999881e+00
9.490714999999999790e+00 0.000000000000000000e+00 0.000000000000000000e+00 -4.917772000000000254e+00 8.140802000000000760e+00 0.000000000000000000e+00 -1.573430000000000106e-01 -4.116899999999999726e-02 6.685417000000000165e+00
9.182477999999999696e+00 0.000000000000000000e+00 0.000000000000000000e+00 -4.756034999999999791e+00 8.157878999999999436e+00 0.000000000000000000e+00 -1.888799999999999923e-01 -4.224100000000000077e-02 6.811498000000000275e+00
9.553611000000000075e+00 0.000000000000000000e+00 0.000000000000000000e+00 -4.868405000000000094e+00 8.312943999999999889e+00 0.000000000000000000e+00 1.973820000000000019e-01 -1.619750000000000079e-01 7.040937999999999697e+00
9.557622000000000284e+00 0.000000000000000000e+00 0.000000000000000000e+00 -5.018023999999999596e+00 8.050458000000000780e+00 0.000000000000000000e+00 -1.179100000000000009e-01 1.263000000000000060e-02 6.931492000000000431e+00
9.460525000000000517e+00 0.000000000000000000e+00 0.000000000000000000e+00 -4.887380000000000280e+00 7.944243000000000166e+00 0.000000000000000000e+00 1.004499999999999976e-01 -1.534820000000000073e-01 6.873867999999999867e+00
9.598209000000000657e+00 0.000000000000000000e+00 0.000000000000000000e+00 -4.903013999999999761e+00 8.011820999999999415e+00 0.000000000000000000e+00 2.922900000000000151e-02 3.330000000000000321e-02 6.918374000000000024e+00
9.480567000000000633e+00 0.000000000000000000e+00 0.000000000000000000e+00 -4.566646999999999679e+00 8.344924000000000675e+00 0.000000000000000000e+00 7.464000000000000148e-03 -1.281259999999999899e-01 7.006869000000000014e+00
9.384752000000000649e+00 0.000000000000000000e+00 0.000000000000000000e+00 -4.555380999999999680e+00 8.118392999999999304e+00 0.000000000000000000e+00 -3.844399999999999901e-02 1.054869999999999974e-01 6.839184999999999626e+00
9.492136000000000351e+00 0.000000000000000000e+00 0.000000000000000000e+00 -4.504057000000000421e+00 8.072976999999999848e+00 0.000000000000000000e+00 -4.739299999999999763e-02 -1.862139999999999906e-01 6.754762999999999629e+00
9.647406000000000148e+00 0.000000000000000000e+00 0.000000000000000000e+00 -4.590456999999999788e+00 8.358838000000000434e+00 0.000000000000000000e+00 -8.651699999999999668e-02 2.613199999999999898e-02 7.054744999999999600e+00
9.180986000000000757e+00 0.000000000000000000e+00 0.000000000000000000e+00 -4.526938999999999602e+00 8.037444000000000699e+00 0.000000000000000000e+00 6.369999999999999794e-03 -6.349399999999999489e-02 6.961278000000000077e+00
9.383533999999999153e+00 0.000000000000000000e+00 0.000000000000000000e+00 -4.848939999999999806e+00 7.991570000000000285e+00 0.000000000000000000e+00 -1.672220000000000095e-01 1.356650000000000078e-01 6.787124999999999631e+00
9.471527999999999281e+00 0.000000000000000000e+00 0.000000000000000000e+00 -4.911673000000000400e+00 7.966808999999999585e+00 0.000000000000000000e+00 1.602790000000000048e-01 2.855600000000000152e-02 6.721807000000000087e+00
9.294059999999999988e+00 0.000000000000000000e+00 0.000000000000000000e+00 -4.769978000000000051e+00 8.319725999999999289e+00 0.000000000000000000e+00 1.627530000000000088e-01 2.026949999999999863e-01 6.924018000000000228e+00
9.392255999999999716e+00 0.000000000000000000e+00 0.000000000000000000e+00 -4.624266999999999683e+00 8.347953000000000401e+00 0.000000000000000000e+00 -9.599199999999999400e-02 -1.461570000000000091e-01 6.751343000000000316e+00
9.378368999999999289e+00 0.000000000000000000e+00 0.000000000000000000e+00 -4.638277999999999679e+00 8.249833999999999889e+00 0.000000000000000000e+00 2.207999999999999893e-03 1.755230000000000123e-01 6.738286999999999694e+00
9.253158000000000882e+00 0.000000000000000000e+00 0.000000000000000000e+00 -4.728041000000000160e+00 8.349418999999999258e+00 0.000000000000000000e+00 1.251009999999999900e-01 -1.862759999999999971e-01 7.008180000000000298e+00
9.590014999999999290e+00 0.000000000000000000e+00 0.000000000000000000e+00 -4.968492000000000353e+00 8.019102000000000174e+00 0.000000000000000000e+00 -1.943159999999999887e-01 6.920600000000000362e-02 6.905597000000000207e+00
9.291567999999999827e+00 0.000000000000000000e+00 0.000000000000000000e+00 -4.504648999999999681e+00 8.360934999999999562e+00 0.000000000000000000e+00 -9.688399999999999790e-02 -5.486300000000000204e-02 6.820209000000000188e+00
9.582636000000000820e+00 0.000000000000000000e+00 0.000000000000000000e+00 -5.006802000000000419e+00 8.347402000000000655e+00 0.000000000000000000e+00 2.841399999999999829e-02 -3.237199999999999800e-02 6.851524000000000392e+00
9.518693000000000737e+00 0.000000000000000000e+00 0.000000000000000000e+00 -4.550705999999999918e+00 7.956800000000000317e+00 0.000000000000000000e+00 1.297310000000000130e-01 -1.104170000000000013e-01 6.842363999999999891e+00
9.634287999999999741e+00 0.000000000000000000e+00 0.000000000000000000e+00 -4.723540999999999990e+00 8.178654999999999120e+00 0.000000000000000000e+00 6.813199999999999812e-02 3.754899999999999904e-02 6.697325000000000195e+00
9.395630000000000592e+00 0.000000000000000000e+00 0.000000000000000000e+00 -4.696382999999999974e+00 8.338720999999999606e+00 0.000000000000000000e+00 -2.035059999999999925e-01 -1.160859999999999947e-01 6.909537000000000262e+00
9.451783000000000712e+00 0.000000000000000000e+00 0.000000000000000000e+00 -4.858999999999999986e+00 7.912531999999999677e+00 0.000000000000000000e+00 -1.306859999999999966e-01 -2.882699999999999846e-02 6.952252999999999794e+00
9.392015999999999920e+00 0.000000000000000000e+00 0.000000000000000000e+00 -4.466529000000000416e+00 8.177305999999999742e+00 0.000000000000000000e+00 -1.687089999999999979e-01 1.734920000000000073e-01 6.757419999999999760e+00
9.614760999999999669e+00 0.000000000000000000e+00 0.000000000000000000e+00 -4.699578999999999951e+00 8.175245000000000317e+00 0.000000000000000000e+00 -1.998550000000000049e-01 -1.329339999999999966e-01 6.792855999999999561e+00
9.568391999999999342e+00 0.000000000000000000e+00 0.000000000000000000e+00 -4.852738999999999692e+00 8.040680000000000049e+00 0.000000000000000000e+00 -1.373640000000000139e-01 4.003999999999999920e-02 6.695749000000000173e+00
9.486288999999999305e+00 0.000000000000000000e+00 0.000000000000000000e+00 -4.841690999999999967e+00 7.979214999999999947e+00 0.000000000000000000e+00 -1.548259999999999914e-01 -5.516000000000000070e-03 7.023068000000000310e+00
9.223395999999999262e+00 0.000000000000000000e+00 0.000000000000000000e+00 -4.554685000000000095e+00 8.188563000000000258e+00 0.000000000000000000e+00 -1.681080000000000074e-01 1.065839999999999982e-01 6.809625999999999735e+00
9.500674000000000063e+00 0.000000000000000000e+00 0.000000000000000000e+00 -4.675087000000000437e+00 8.239682000000000173e+00 0.000000000000000000e+00 1.320310000000000095e-01 -1.089920000000000055e-01 6.853647999999999740e+00
9.509664000000000783e+00 0.000000000000000000e+00 0.000000000000000000e+00 -4.566200000000000259e+00 7.988023000000000096e+00 0.000000000000000000e+00 -9.596300000000000663e-02 -1.844159999999999966e-01 6.931263999999999648e+00
9.660657999999999745e+00 0.000000000000000000e+00 0.000000000000000000e+00 -4.966299000000000241e+00 8.037596000000000629e+00 0.000000000000000000e+00 -1.024270000000000042e-01 1.412199999999999914e-02 6.880371000000000237e+00
9.244172000000000722e+00 0.000000000000000000e+00 0.000000000000000000e+00 -4.456036000000000108e+00 7.989486999999999561e+00 0.000000000000000000e+00 1.260989999999999889e-01 -1.164990000000000053e-01 6.690038000000000373e+00
9.567925000000000679e+00 0.000000000000000000e+00 0.000000000000000000e+00 -4.822798999999999836e+00 8.312893000000000754e+00 0.000000000000000000e+00 6.748099999999999932e-02 6.079600000000000282e-02 6.897204000000000335e+00
9.240899000000000640e+00 0.000000000000000000e+00 0.000000000000000000e+00 -4.651361999999999775e+00 7.940483000000000402e+00 0.000000000000000000e+00 1.409990000000000132e-01 -7.797900000000000664e-02 6.942909000000000219e+00
9.570601999999999165e+00 0.000000000000000000e+00 0.000000000000000000e+00 -4.700725000000000264e+00 7.967934999999999768e+00 0.000000000000000000e+00 -3.331300000000000233e-02 -9.272500000000000187e-02 6.657633999999999830e+00
9.274848000000000425e+00 0.000000000000000000e+00 0.000000000000000000e+00 -4.728115999999999985e+00 8.372235999999999123e+00 0.000000000000000000e+00 1.390369999999999939e-01 8.922499999999999876e-02 6.744868999999999559e+00
9.401300000000000878e+00 0.000000000000000000e+00 0.000000000000000000e+00 -4.631415999999999755e+00 8.128474999999999895e+00 0.000000000000000000e+00 1.275360000000000105e-01 1.042430000000000023e-01 6.751954999999999707e+00
9.293981000000000492e+00 0.000000000000000000e+00 0.000000000000000000e+00 -4.841916000000000331e+00 8.259036000000000044e+00 0.000000000000000000e+00 1.113610000000000017e-01 -1.587159999999999960e-01 6.998071999999999626e+00
9.622204999999999231e+00 0.000000000000000000e+00 0.000000000000000000e+00 -4.962927999999999784e+00 7.992314999999999614e+00 0.000000000000000000e+00 1.804830000000000045e-01 1.577040000000000108e-01 6.963180000000000369e+00
9.462262000000000839e+00 0.000000000000000000e+00 0.000000000000000000e+00 -4.530580999999999747e+00 8.090609999999999857e+00 0.000000000000000000e+00 5.164099999999999940e-02 -1.855529999999999957e-01 6.678506999999999749e+00
9.581678000000000139e+00 0.000000000000000000e+00 0.000000000000000000e+00 -4.575403999999999805e+00 8.331851000000000340e+00 0.000000000000000000e+00 2.000899999999999901e-01 1.687760000000000093e-01 6.915545999999999971e+00
9.468042999999999765e+00 0.000000000000000000e+00 0.000000000000000000e+00 -4.962194000000000216e+00 8.228932000000000357e+00 0.000000000000000000e+00 1.028699999999999927e-02 6.433800000000000630e-02 7.036782999999999788e+00
9.619208000000000425e+00 0.000000000000000000e+00 0.000000000000000000e+00 -4.966984000000000066e+00 8.199583000000000510e+00 0.000000000000000000e+00 7.100000000000000191e-04 1.614810000000000134e-01 6.719000999999999557e+00
9.314361999999999142e+00 0.000000000000000000e+00 0.000000000000000000e+00 -4.782957999999999821e+00 7.894103000000000314e+00 0.000000000000000000e+00 -3.488299999999999734e-02 3.320499999999999841e-02 6.846187999999999718e+00
9.313860000000000028e+00 0.000000000000000000e+00 0.000000000000000000e+00 -4.485096999999999667e+00 8.112012999999999252e+00 0.000000000000000000e+00 -1.549840000000000106e-01 -7.919099999999999751e-02 6.774638999999999633e+00
9.395661000000000485e+00 0.000000000000000000e+00 0.000000000000000000e+00 -4.708688000000000429e+00 7.988142999999999994e+00 0.000000000000000000e+00 3.805200000000000249e-02 9.927999999999999325e-02 6.734939999999999927e+00
9.560791000000000039e+00 0.000000000000000000e+00 0.000000000000000000e+00 -4.731001000000000012e+00 8.049486999999999171e+00 0.000000000000000000e+00 -5.965000000000000163e-02 1.638320000000000054e-01 6.737506999999999913e+00
9.358893999999999380e+00 0.000000000000000000e+00 0.000000000000000000e+00 -4.881974999999999731e+00 8.245692000000000021e+00 0.000000000000000000e+00 -3.382600000000000190e-02 3.887700000000000183e-02 7.031539999999999679e+00
9.551584000000000074e+00 0.000000000000000000e+00 0.000000000000000000e+00 -4.856696999999999598e+00 8.325630000000000308e+00 0.000000000000000000e+00 -7.982000000000000206e-02 -1.947190000000000032e-01 6.754526000000000252e+00
9.324823000000000306e+00 0.000000000000000000e+00 0.000000000000000000e+00 -4.437160999999999689e+00 8.294582000000000122e+00 0.000000000000000000e+00 4.104000000000000009e-03 7.775799999999999379e-02 7.042300000000000004e+00
9.259176000000000073e+00 0.000000000000000000e+00 0.000000000000000000e+00 -4.802173999999999943e+00 8.312689999999999912e+00 0.000000000000000000e+00 5.216900000000000009e-02 4.421800000000000036e-02 6.842596000000000345e+00
9.190227000000000146e+00 0.000000000000000000e+00 0.000000000000000000e+00 -4.697987000000000357e+00 7.994468000000000352e+00 0.000000000000000000e+00 -5.777299999999999797e-02 1.863049999999999984e-01 6.762114999999999654e+00
9.127100000000000435e+00 0.000000000000000000e+00 0.000000000000000000e+00 -4.654971999999999888e+00 8.171941000000000344e+00 0.000000000000000000e+00 1.572780000000000011e-01 -1.485009999999999941e-01 7.033110999999999891e+00
9.143268000000000839e+00 0.000000000000000000e+00 0.000000000000000000e+00 -4.467194000000000109e+00 8.228747999999999507e+00 0.000000000000000000e+00 1.045770000000000033e-01 -2.695200000000000026e-02 6.851300000000000168e+00
9.384833000000000425e+00 0.000000000000000000e+00 0.000000000000000000e+00 -4.564650000000000318e+00 8.369443999999999662e+00 0.000000000000000000e+00 6.525300000000000544e-02 -6.308300000000000018e-02 6.777974000000000387e+00
9.628237000000000378e+00 0.000000000000000000e+00 0.000000000000000000e+00 -4.667886000000000202e+00 8.065706999999999738e+00 0.000000000000000000e+00 1.596660000000000024e-01 1.083689999999999931e-01 6.666215000000000224e+00
9.272430999999999202e+00 0.000000000000000000e+00 0.000000000000000000e+00 -4.428263000000000282e+00 7.967210999999999821e+00 0.000000000000000000e+00 9.998700000000000643e-02 -2.000119999999999953e-01 6.731169000000000402e+00
9.469212999999999880e+00 0.000000000000000000e+00 0.000000000000000000e+00 -4.963976999999999862e+00 8.065884999999999749e+00 0.000000000000000000e+00 1.768790000000000084e-01 -1.197160000000000030e-01 6.946361999999999703e+00
9.295975999999999573e+00 0.000000000000000000e+00 0.000000000000000000e+00 -4.455268000000000228e+00 8.031276000000000082e+00 0.000000000000000000e+00 -3.560300000000000270e-02 1.269490000000000063e-01 6.964317000000000313e+00
9.268743999999999872e+00 0.000000000000000000e+00 0.000000000000000000e+00 -4.855331999999999759e+00 8.194957000000000491e+00 0.000000000000000000e+00 4.619600000000000095e-02 -1.330929999999999891e-01 6.951233000000000217e+00
9.424827999999999761e+00 0.000000000000000000e+00 0.000000000000000000e+00 -4.950840000000000352e+00 8.197647999999999158e+00 0.000000000000000000e+00 1.782990000000000130e-01 5.097200000000000342e-02 6.877538000000000373e+00
9.353524999999999423e+00 0.000000000000000000e+00 0.000000000000000000e+00 -4.790441000000000393e+00 8.312697000000000003e+00 0.000000000000000000e+00 -1.147210000000000035e-01 -1.775740000000000096e-01 6.978962000000000110e+00
9.344998000000000360e+00 0.000000000000000000e+00 0.000000000000000000e+00 -4.843975999999999615e+00 7.947972000000000037e+00 0.000000000000000000e+00 -6.480299999999999949e-02 -1.492539999999999978e-01 6.926035999999999859e+00
9.173605999999999483e+00 0.000000000000000000e+00 0.000000000000000000e+00 -4.605641999999999570e+00 8.206258000000000052e+00 0.000000000000000000e+00 -2.001479999999999926e-01 1.492620000000000058e-01 6.911402999999999963e+00
9.557705999999999591e+00 0.000000000000000000e+00 0.000000000000000000e+00 -4.793063000000000073e+00 8.144838000000000022e+00 0.000000000000000000e+00 1.887439999999999951e-01 -1.511270000000000113e-01 6.931403000000000425e+00
9.131237999999999744e+00 0.000000000000000000e+00 0.000000000000000000e+00 -4.648083999999999882e+00 8.180343000000000586e+00 0.000000000000000000e+00 -9.043600000000000250e-02 -1.367430000000000034e-01 7.046452000000000382e+00
9.643060999999999439e+00 0.000000000000000000e+00 0.000000000000000000e+00 -5.007673999999999737e+00 8.245056999999999192e+00 0.000000000000000000e+00 -5.937599999999999822e-02 -1.989059999999999995e-01 6.777023999999999937e+00
9.386834000000000344e+00 0.000000000000000000e+00 0.000000000000000000e+00 -4.738082000000000349e+00 8.012202999999999520e+00 0.000000000000000000e+00 2.459400000000000128e-02 1.860289999999999999e-01 6.825681999999999583e+00
9.540891000000000233e+00 0.000000000000000000e+00 0.000000000000000000e+00 -4.646541000000000032e+00 7.938118000000000229e+00 0.000000000000000000e+00 9.855800000000000671e-02 -1.703939999999999899e-01 6.698853999999999864e+00
9.566888000000000503e+00 0.000000000000000000e+00 0.000000000000000000e+00 -4.907935000000000159e+00 8.264345999999999748e+00 0.000000000000000000e+00 -1.876839999999999897e-01 -1.142839999999999967e-01 6.990441999999999823e+00
9.525824000000000069e+00 0.000000000000000000e+00 0.000000000000000000e+00 -4.554909999999999570e+00 8.158288999999999902e+00 0.000000000000000000e+00 -6.551899999999999391e-02 3.743400000000000200e-02 6.955117000000000438e+00
9.345489000000000601e+00 0.000000000000000000e+00 0.000000000000000000e+00 -4.897853999999999708e+00 8.177996999999999517e+00 0.000000000000000000e+00 -1.836520000000000097e-01 -1.724920000000000064e-01 6.742566000000000059e+00
9.507424000000000319e+00 0.000000000000000000e+00 0.000000000000000000e+00 -4.934623000000000204e+00 7.976300000000000168e+00 0.000000000000000000e+00 -3.428699999999999803e-02 8.282000000000000473e-02 6.922647000000000439e+00
9.246689999999999188e+00 0.000000000000000000e+00 0.000000000000000000e+00 -4.656492000000000075e+00 7.904219999999999580e+00 0.000000000000000000e+00 3.412999999999999801e-03 1.216399999999999947e-02 6.794095999999999691e+00
9.454095999999999833e+00 0.000000000000000000e+00 0.000000000000000000e+00 -4.562928000000000317e+00 8.037959999999999994e+00 0.000000000000000000e+00 -1.948280000000000012e-01 1.659400000000000042e-01 7.048280000000000101e+00
9.643971000000000515e+00 0.000000000000000000e+00 0.000000000000000000e+00 -4.804555999999999827e+00 8.209550999999999377e+00 0.000000000000000000e+00 1.587040000000000117e-01 -1.297049999999999870e-01 6.868030000000000079e+00
9.650460999999999956e+00 0.000000000000000000e+00 0.000000000000000000e+00 -4.838655000000000150e+00 8.209718000000000515e+00 0.000000000000000000e+00 1.374750000000000139e-01 7.141500000000000625e-02 6.780142999999999809e+00
9.454952000000000467e+00 0.000000000000000000e+00 0.000000000000000000e+00 -4.616601000000000177e+00 8.110758999999999830e+00 0.000000000000000000e+00 -9.058800000000000185e-02 -2.204100000000000156e-02 7.023238000000000092e+00
9.429864999999999498e+00 0.000000000000000000e+00 0.000000000000000000e+00 -4.758983999999999881e+00 8.137819000000000358e+00 0.000000000000000000e+00 8.760500000000000231e-02 -1.568660000000000054e-01 6.813414999999999999e+00
9.186897999999999342e+00 0.000000000000000000e+00 0.000000000000000000e+00 -4.357217000000000340e+00 8.044361999999999568e+00 0.000000000000000000e+00 3.631399999999999906e-02 -8.711999999999999258e-03 7.053328999999999738e+00
9.225122999999999962e+00 0.000000000000000000e+00 0.000000000000000000e+00 -4.420551999999999815e+00 8.362095999999999307e+00 0.000000000000000000e+00 1.095720000000000027e-01 1.528970000000000051e-01 6.661220000000000141e+00
9.437150000000000816e+00 0.000000000000000000e+00 0.000000000000000000e+00 -4.699144999999999683e+00 7.967581000000000024e+00 0.000000000000000000e+00 1.061529999999999974e-01 1.203199999999999929e-02 6.734625999999999557e+00
9.325889999999999347e+00 0.000000000000000000e+00 0.000000000000000000e+00 -4.553093999999999753e+00 8.116545000000000343e+00 0.000000000000000000e+00 -2.017440000000000067e-01 -2.875700000000000131e-02 6.852923999999999793e+00
9.319672999999999874e+00 0.000000000000000000e+00 0.000000000000000000e+00 -4.428295000000000314e+00 7.957796000000000092e+00 0.000000000000000000e+00 -1.155599999999999961e-01 1.190859999999999974e-01 6.683918000000000248e+00
9.626922999999999675e+00 0.000000000000000000e+00 0.000000000000000000e+00 -4.988565000000000360e+00 8.243192000000000519e+00 0.000000000000000000e+00 -6.160700000000000204e-02 -1.787800000000000153e-02 6.852339999999999876e+00
9.420325000000000060e+00 0.000000000000000000e+00 0.000000000000000000e+00 -4.864024999999999821e+00 8.275985999999999621e+00 0.000000000000000000e+00 -1.086699999999999992e-02 -1.026000000000000002e-03 6.807133999999999574e+00
9.181872000000000256e+00 0.000000000000000000e+00 0.000000000000000000e+00 -4.460154000000000174e+00 8.013932000000000500e+00 0.000000000000000000e+00 -1.484600000000000086e-01 1.328479999999999939e-01 6.857238999999999862e+00
9.488716999999999402e+00 0.000000000000000000e+00 0.000000000000000000e+00 -4.959238000000000035e+00 7.944773999999999781e+00 0.000000000000000000e+00 9.341999999999999610e-03 -1.330280000000000074e-01 6.873332999999999693e+00
9.278295999999999211e+00 0.000000000000000000e+00 0.000000000000000000e+00 -4.783716000000000079e+00 8.319722000000000506e+00 0.000000000000000000e+00 -1.024010000000000059e-01 -2.482300000000000131e-02 7.051095000000000113e+00
9.298588999999999771e+00 0.000000000000000000e+00 0.000000000000000000e+00 -4.419078999999999979e+00 7.967543000000000042e+00 0.000000000000000000e+00 -2.039910000000000057e-01 -1.633560000000000012e-01 7.045886999999999567e+00
9.250698999999999117e+00 0.000000000000000000e+00 0.000000000000000000e+00 -4.510870999999999853e+00 8.164274999999999949e+00 0.000000000000000000e+00 -1.533000000000000074e-03 2.937999999999999987e-02 6.969927000000000206e+00
9.237270000000000536e+00 0.000000000000000000e+00 0.000000000000000000e+00 -4.696061000000000263e+00 8.053931999999999647e+00 0.000000000000000000e+00 -2.337799999999999948e-02 9.936899999999999900e-02 6.718170999999999893e+00
9.340458999999999179e+00 0.000000000000000000e+00 0.000000000000000000e+00 -4.711659000000000042e+00 8.262126000000000303e+00 0.000000000000000000e+00 1.777000000000000107e-02 1.717059999999999975e-01 6.670901999999999887e+00
9.353344999999999132e+00 0.000000000000000000e+00 0.000000000000000000e+00 -4.790942000000000256e+00 7.978913999999999618e+00 0.000000000000000000e+00 1.520759999999999890e-01 8.199499999999999844e-02 6.947443999999999953e+00
9.470420000000000726e+00 0.000000000000000000e+00 0.000000000000000000e+00 -4.585472000000000214e+00 8.068789999999999907e+00 0.000000000000000000e+00 -1.640199999999999991e-01 -1.013040000000000052e-01 6.831012000000000306e+00
9.488336000000000325e+00 0.000000000000000000e+00 0.000000000000000000e+00 -4.742624000000000173e+00 8.374451999999999785e+00 0.000000000000000000e+00 -8.753700000000000370e-02 4.805299999999999849e-02 6.973938000000000415e+00
9.610936999999999841e+00 0.000000000000000000e+00 0.000000000000000000e+00 -4.626024000000000136e+00 8.162103000000000108e+00 0.000000000000000000e+00 -1.371449999999999891e-01 -1.134899999999999971e-02 6.678112999999999744e+00
9.429771000000000569e+00 0.000000000000000000e+00 0.000000000000000000e+00 -4.765413999999999817e+00 8.111169999999999547e+00 0.000000000000000000e+00 1.323409999999999864e-01 2.007259999999999878e-01 7.000027000000000221e+00
9.375742999999999938e+00 0.000000000000000000e+00 0.000000000000000000e+00 -4.622239000000000431e+00 8.009672999999999377e+00 0.000000000000000000e+00 8.462200000000000277e-02 2.081149999999999944e-01 7.053420000000000023e+00
9.607436999999999117e+00 0.000000000000000000e+00 0.000000000000000000e+00 -4.678068999999999811e+00 8.264181999999999917e+00 0.000000000000000000e+00 -8.062900000000000622e-02 -1.181350000000000039e-01 6.984924999999999606e+00
9.570048999999999140e+00 0.000000000000000000e+00 0.000000000000000000e+00 -4.946645000000000181e+00 8.261663000000000423e+00 0.000000000000000000e+00 2.907399999999999915e-02 1.426379999999999870e-01 6.953181999999999974e+00
9.202870000000000772e+00 0.000000000000000000e+00 0.000000000000000000e+00 -4.788631999999999778e+00 7.893912000000000262e+00 0.000000000000000000e+00 8.732299999999999784e-02 -1.710270000000000123e-01 6.813424000000000369e+00
9.645823999999999288e+00 0.000000000000000000e+00 0.000000000000000000e+00 -4.962158999999999764e+00 8.231878999999999280e+00 0.000000000000000000e+00 1.665379999999999916e-01 1.687100000000000058e-02 6.834952000000000361e+00
9.128493999999999886e+00 0.000000000000000000e+00 0.000000000000000000e+00 -4.497781999999999947e+00 8.176460999999999757e+00 0.000000000000000000e+00 1.913799999999999876e-02 3.849999999999999950e-02 7.048300000000000232e+00
9.589154999999999873e+00 0.000000000000000000e+00 0.000000000000000000e+00 -4.970364000000000004e+00 7.992473000000000383e+00 0.000000000000000000e+00 -1.835340000000000027e-01 -1.719060000000000032e-01 6.660147000000000261e+00
9.639234999999999332e+00 0.000000000000000000e+00 0.000000000000000000e+00 -4.611596999999999724e+00 8.187991999999999493e+00 0.000000000000000000e+00 -1.737700000000000078e-01 1.668630000000000113e-01 6.932764999999999844e+00
9.489770999999999290e+00 0.000000000000000000e+00 0.000000000000000000e+00 -4.531162000000000134e+00 8.063347000000000264e+00 0.000000000000000000e+00 7.843700000000000672e-02 1.088250000000000051e-01 6.979143999999999792e+00
9.430203999999999809e+00 0.000000000000000000e+00 0.000000000000000000e+00 -4.761000000000000121e+00 8.069948999999999373e+00 0.000000000000000000e+00 2.740199999999999927e-02 1.883940000000000059e-01 6.969363000000000419e+00
9.241279999999999717e+00 0.000000000000000000e+00 0.000000000000000000e+00 -4.605287999999999826e+00 8.343272000000000688e+00 0.000000000000000000e+00 8.822199999999999487e-02 -6.128800000000000220e-02 6.711167999999999800e+00
9.438173000000000812e+00 0.000000000000000000e+00 0.000000000000000000e+00 -4.793130999999999808e+00 8.010987000000000080e+00 0.000000000000000000e+00 1.934549999999999881e-01 4.542999999999999816e-02 6.939089000000000063e+00
9.569340000000000401e+00 0.000000000000000000e+00 0.000000000000000000e+00 -4.976316999999999879e+00 8.222680999999999685e+00 0.000000000000000000e+00 1.871150000000000035e-01 -4.405799999999999994e-02 6.970259999999999678e+00
9.406947999999999865e+00 0.000000000000000000e+00 0.000000000000000000e+00 -4.909214999999999662e+00 8.348625999999999436e+00 0.000000000000000000e+00 -1.958000000000000018e-02 4.415399999999999880e-02 6.839979999999999727e+00
9.147273999999999461e+00 0.000000000000000000e+00 0.000000000000000000e+00 -4.722298999999999580e+00 8.191338000000000008e+00 0.000000000000000000e+00 -2.083270000000000122e-01 1.441399999999999904e-01 6.838013000000000119e+00
9.461133000000000237e+00 0.000000000000000000e+00 0.000000000000000000e+00 -4.599891999999999648e+00 7.971534000000000120e+00 0.000000000000000000e+00 1.858619999999999994e-01 8.778099999999999792e-02 6.900837000000000110e+00
9.258260999999999186e+00 0.000000000000000000e+00 0.000000000000000000e+00 -4.399956000000000422e+00 7.913077000000000361e+00 0.000000000000000000e+00 2.056459999999999955e-01 1.758020000000000138e-01 6.662238999999999578e+00
9.537478999999999374e+00 0.000000000000000000e+00 0.000000000000000000e+00 -4.698323000000000249e+00 8.179442999999999131e+00 0.000000000000000000e+00 -7.219100000000000517e-02 -5.486300000000000204e-02 6.736888999999999683e+00
9.142754999999999299e+00 0.000000000000000000e+00 0.000000000000000000e+00 -4.640239000000000225e+00 8.130912000000000361e+00 0.000000000000000000e+00 -1.546220000000000094e-01 -8.155999999999999361e-02 6.892174999999999940e+00
9.419466999999999146e+00 0.000000000000000000e+00 0.000000000000000000e+00 -4.699189999999999756e+00 8.023794000000000537e+00 0.000000000000000000e+00 1.447460000000000135e-01 -1.518190000000000095e-01 6.969833999999999641e+00
9.520623000000000502e+00 0.000000000000000000e+00 0.000000000000000000e+00 -4.906994000000000078e+00 8.190742000000000189e+00 0.000000000000000000e+00 -1.356449999999999878e-01 -5.723099999999999715e-02 6.920815000000000161e+00
9.530696000000000723e+00 0.000000000000000000e+00 0.000000000000000000e+00 -4.894953000000000110e+00 8.312678999999999263e+00 0.000000000000000000e+00 1.037020000000000025e-01 1.310290000000000066e-01 6.891224000000000238e+00
9.247040999999999400e+00 0.000000000000000000e+00 0.000000000000000000e+00 -4.857452000000000325e+00 7.912582999999999700e+00 0.000000000000000000e+00 -1.923600000000000032e-01 7.900899999999999590e-02 6.816254999999999953e+00
9.492366000000000525e+00 0.000000000000000000e+00 0.000000000000000000e+00 -4.622632000000000296e+00 8.036362999999999701e+00 0.000000000000000000e+00 1.105219999999999952e-01 1.063800000000000023e-01 6.863692000000000348e+00
9.245226999999999862e+00 0.000000000000000000e+00 0.000000000000000000e+00 -4.618807999999999581e+00 8.196158000000000499e+00 0.000000000000000000e+00 -1.142740000000000006e-01 1.266319999999999946e-01 7.065081000000000166e+00
9.277224999999999611e+00 0.000000000000000000e+00 0.000000000000000000e+00 -4.441218000000000110e+00 7.952861999999999654e+00 0.000000000000000000e+00 -4.733400000000000107e-02 7.403600000000000458e-02 6.880805999999999756e+00
9.599334000000000700e+00 0.000000000000000000e+00 0.000000000000000000e+00 -4.846484000000000236e+00 8.191760999999999626e+00 0.000000000000000000e+00 -1.317639999999999922e-01 1.023400000000000004e-01 7.007194000000000145e+00
9.145099999999999341e+00 0.000000000000000000e+00 0.000000000000000000e+00 -4.794290000000000163e+00 8.069858999999999227e+00 0.000000000000000000e+00 7.391399999999999360e-02 -4.609100000000000003e-02 6.974695999999999785e+00
9.351375000000000881e+00 0.000000000000000000e+00 0.000000000000000000e+00 -4.820059999999999789e+00 8.091627000000000791e+00 0.000000000000000000e+00 8.092000000000000581e-02 1.260969999999999869e-01 7.056220999999999854e+00
9.277229999999999421e+00 0.000000000000000000e+00 0.000000000000000000e+00 -4.700192000000000370e+00 8.218614000000000530e+00 0.000000000000000000e+00 -6.638299999999999756e-02 1.475500000000000075e-02 6.897514000000000145e+00
9.477088999999999430e+00 0.000000000000000000e+00 0.000000000000000000e+00 -4.513319000000000081e+00 8.157591999999999288e+00 0.000000000000000000e+00 -6.900100000000000677e-02 -8.024999999999999148e-03 7.016947000000000045e+00