-2.293812920000000144e+00 7.723478489999999752e+00 1.839378170000000035e+00 -1.115611200000000025e+00 1.881561739999999983e+00 1.672182800000000080e+00 1.145021199999999989e-01 5.200441089999999988e+00 1.832856700000000116e-01 -1.144483000000000028e-01 5.328900339999999680e+00 3.327631119999999942e+00 9.122295299999999552e-01 1.915434180000000097e+00 5.156488569999999605e+00 3.616077980000000025e+00 5.893387210000000209e+00 1.806109100000000023e+00 4.723841280000000253e+00 2.560806910000000158e+00 3.304937419999999904e+00 4.580772630000000234e+00 2.266927050000000055e+00 7.051039140000000316e+00 5.893648640000000327e+00 5.444830279999999689e+00 5.116837699999999600e+00 6.822429200000000193e+00 -2.632449000000000039e-01 5.271567740000000057e+00 -1.462044630000000067e+00 3.000357830000000003e+00 5.175203569999999864e+00 -1.103143599999999891e+00 7.462517410000000240e+00 5.472754329999999889e+00 1.950146610000000003e+00 2.832822810000000135e+00 1.639631429999999890e+00 2.725197269999999783e+00 5.011433679999999669e+00 5.312205529999999953e+00 5.912027809999999661e+00 3.237187300000000101e-01 1.757195379999999973e+00 6.504203839999999737e+00 4.756555889999999565e+00 1.840131640000000068e+00 -5.199443000000000120e-02 2.172212999999999922e-02 2.838137660000000118e+00 -1.600023600000000101e-01 -2.743311700000000131e-01 6.545725469999999824e+00 -1.990019849999999924e+00 7.173165440000000004e+00 6.537969559999999625e+00 -2.054030669999999947e+00 7.130116799999999699e+00 4.050828720000000160e+00 -1.602223869999999994e+00 5.198554320000000395e+00 1.734302730000000015e+00 -1.728097879999999975e+00 4.397587660000000120e+00 5.242210720000000101e+00 -8.921394900000000350e-01 2.660755040000000182e+00 4.047290600000000182e+00 -1.129995249999999896e+00 2.574287089999999889e+00 6.436943389999999710e+00 4.722581000000000001e-02 6.759737030000000146e+00 5.182443430000000184e+00 7.434646299999999597e-01 3.694688709999999876e+00 1.733914820000000079e+00 8.102880099999999475e-01 6.466420979999999652e+00 1.786386510000000039e+00 1.304840369999999972e+00 4.046696250000000106e+00 5.290551350000000319e+00 2.017698890000000134e+00 1.983691040000000072e+00 2.896756289999999900e+00 2.061788099999999790e+00 1.893555920000000059e+00 4.918710199999999921e-01 2.522596679999999925e+00 5.736216540000000030e+00 6.491366489999999878e+00 2.870317009999999947e+00 5.688079300000000060e+00 4.164803349999999682e+00 3.251133600000000179e+00 3.592565329999999779e+00 1.672777790000000042e+00 3.814149560000000161e+00 1.356484159999999939e+00 5.108041880000000035e+00 3.877993410000000196e+00 3.822820570000000195e+00 5.136062769999999666e+00 4.395632769999999745e+00 1.063053669999999951e+00 1.496729229999999911e+00 5.655001480000000136e+00 5.073413900000000254e+00 4.193099399999999921e-01 5.525778759999999679e+00 5.146139090000000138e+00 3.000825879999999835e+00 6.384904660000000121e+00 3.044305079999999997e+00 1.870530859999999906e+00 6.276991269999999901e+00 2.496167980000000064e+00 5.312580299999999589e+00 6.633539629999999576e+00 6.388609600000000333e-01 2.988640849999999904e+00 6.635960210000000359e+00 8.559957099999999652e-01 5.679383099999999462e-01 -9.519333000000000655e-02 -6.241022999999999710e-02 2.200442729999999791e+00 -2.014229700000000067e-01 -1.667137499999999939e-01 5.602389960000000002e+00
-2.139448470000000047e+00 8.099182320000000601e+00 1.651088310000000003e+00 -1.329190709999999997e+00 1.971772370000000052e+00 1.759712900000000024e+00 2.251129699999999956e-01 5.589444590000000268e+00 -3.956990999999999981e-02 -6.734980000000000133e-02 5.520739569999999929e+00 3.522091539999999910e+00 1.385746960000000083e+00 1.908262020000000003e+00 5.119845859999999860e+00 3.345605700000000127e+00 6.317307640000000113e+00 1.600663120000000106e+00 4.631197560000000379e+00 2.727035159999999792e+00 3.559936689999999793e+00 4.552462779999999931e+00 2.694977310000000070e+00 6.751810899999999727e+00 5.663579509999999928e+00 6.035538559999999997e+00 5.117076309999999850e+00 6.859312240000000394e+00 -3.808897199999999872e-01 5.110344519999999946e+00 -1.452962120000000024e+00 3.121837489999999882e+00 5.256726699999999752e+00 -1.000969830000000060e+00 8.081699269999999657e+00 4.997464820000000252e+00 1.978316090000000083e+00 3.028999760000000041e+00 1.816377769999999892e+00 2.674131179999999830e+00 5.165466590000000302e+00 5.224320040000000276e+00 5.845738879999999860e+00 1.327095199999999975e-01 1.801302659999999944e+00 6.241994789999999682e+00 4.692048830000000059e+00 1.566304460000000010e+00 -2.497313800000000028e-01 1.210415600000000064e-01 2.909961239999999894e+00 1.268449899999999908e-01 -8.875674999999999537e-02 6.594562350000000350e+00 -1.961366530000000052e+00 7.441422539999999586e+00 6.558718899999999685e+00 -1.803086270000000102e+00 7.495289360000000123e+00 3.957652340000000102e+00 -1.474437800000000021e+00 5.478972640000000283e+00 1.789224939999999986e+00 -1.559321310000000071e+00 4.744361040000000251e+00 5.253730789999999651e+00 -7.689715499999999482e-01 2.689286379999999976e+00 3.889507510000000057e+00 -8.419745800000000280e-01 2.607697030000000193e+00 6.500165169999999826e+00 2.440065299999999993e-01 7.198422009999999815e+00 4.946631889999999920e+00 7.595461399999999808e-01 4.095672519999999928e+00 1.552565130000000071e+00 1.069786689999999929e+00 6.735230679999999914e+00 1.807167369999999940e+00 1.444877439999999957e+00 4.236001289999999919e+00 5.290420789999999762e+00 1.887163439999999914e+00 2.166386829999999986e+00 2.930595760000000105e+00 2.141378879999999985e+00 1.733534139999999946e+00 6.355752700000000255e-01 2.648128480000000007e+00 5.825701389999999869e+00 6.583587030000000340e+00 2.417185570000000006e+00 5.850209360000000025e+00 3.864600330000000028e+00 3.335422750000000214e+00 4.006945729999999983e+00 1.768194940000000104e+00 3.659828979999999898e+00 1.187167800000000106e+00 4.916437250000000425e+00 3.778154949999999790e+00 3.999252540000000078e+00 5.210860870000000311e+00 4.359735559999999843e+00 1.019987460000000068e+00 1.678040879999999957e+00 5.525676490000000385e+00 5.412466789999999861e+00 5.270029999999999992e-01 5.511972949999999649e+00 5.366553409999999857e+00 3.017101869999999852e+00 6.156373440000000308e+00 3.145280570000000164e+00 1.818857380000000079e+00 6.071235080000000117e+00 2.513635460000000155e+00 5.285535539999999699e+00 6.512275329999999585e+00 7.433137899999999743e-01 2.990811949999999886e+00 6.353884729999999870e+00 7.566697700000000193e-01 3.993744200000000077e-01 3.191113000000000283e-02 -1.802181499999999936e-01 1.972569749999999900e+00 6.835201999999999944e-02 -3.727359999999999875e-03 5.473645219999999867e+00
-2.621897660000000130e+00 8.225850740000000272e+00 1.449479739999999905e+00 -9.976098100000000413e-01 2.208544750000000167e+00 1.853529339999999914e+00 -1.898163800000000068e-01 5.308680700000000030e+00 -5.294411999999999729e-02 -3.783630399999999838e-01 5.385369100000000131e+00 3.493058589999999963e+00 1.018396789999999941e+00 1.890005720000000000e+00 5.055741900000000122e+00 3.318646310000000099e+00 5.865461759999999636e+00 1.696676779999999995e+00 4.817079360000000143e+00 2.721386519999999809e+00 3.269345840000000170e+00 4.306823310000000404e+00 2.487812059999999992e+00 6.609441699999999642e+00 5.730116029999999583e+00 6.052043330000000054e+00 5.033445389999999797e+00 7.168101090000000397e+00 -7.302099999999999737e-03 5.119252290000000372e+00 -1.839667519999999890e+00 3.238586890000000107e+00 5.058015120000000309e+00 -1.308340730000000063e+00 7.743553000000000353e+00 4.940367929999999852e+00 1.933981710000000076e+00 3.042719219999999947e+00 1.748088429999999915e+00 2.328466680000000011e+00 5.337320690000000312e+00 4.828203140000000282e+00 5.625558550000000047e+00 3.507499700000000220e-01 1.696185999999999972e+00 6.093162079999999925e+00 4.754834899999999642e+00 1.731925179999999953e+00 -7.285924000000000567e-02 -1.122491199999999939e-01 2.930544949999999815e+00 -1.958293600000000079e-01 -5.688013000000000097e-02 6.278964659999999753e+00 -2.209458619999999929e+00 7.563611790000000390e+00 6.122560149999999979e+00 -2.198609600000000164e+00 7.528293149999999656e+00 4.181662550000000422e+00 -1.843552480000000049e+00 5.361995900000000148e+00 1.733449360000000050e+00 -1.853308500000000025e+00 4.749454400000000298e+00 4.960507650000000268e+00 -8.816896199999999517e-01 2.679184769999999993e+00 3.864313070000000128e+00 -9.846667799999999637e-01 2.933119640000000139e+00 6.591239410000000021e+00 -1.445832800000000085e-01 7.133674590000000038e+00 4.968481979999999965e+00 6.982894899999999572e-01 3.904829859999999986e+00 1.713823639999999981e+00 6.153505400000000014e-01 6.828478950000000047e+00 1.606030960000000007e+00 1.113657789999999981e+00 4.317610809999999688e+00 4.907286939999999653e+00 2.204880300000000126e+00 2.071211239999999787e+00 2.996417350000000202e+00 1.824265999999999943e+00 2.191242250000000169e+00 3.412471499999999991e-01 2.375227869999999797e+00 5.847072970000000147e+00 6.268141209999999575e+00 2.647019740000000176e+00 6.279860300000000173e+00 3.601930219999999849e+00 3.238877099999999842e+00 3.837984039999999819e+00 1.516365240000000059e+00 3.853640749999999837e+00 1.283937169999999961e+00 5.047313329999999709e+00 3.506451610000000052e+00 4.127833179999999658e+00 5.050906570000000428e+00 4.431433900000000037e+00 9.949711399999999761e-01 1.631013379999999957e+00 5.339965770000000056e+00 5.210163009999999595e+00 3.611279000000000017e-01 5.385170239999999886e+00 5.259566699999999706e+00 2.719999790000000139e+00 6.289618899999999790e+00 3.527631720000000026e+00 1.625728969999999940e+00 6.282357010000000130e+00 2.423571780000000064e+00 4.932354450000000057e+00 6.423846890000000087e+00 8.051696499999999590e-01 2.909821120000000150e+00 6.852015040000000390e+00 4.973532800000000087e-01 5.827138299999999882e-01 -1.178687999999999958e-01 -1.356846499999999900e-01 1.778940479999999935e+00 -2.827077299999999904e-01 -1.647146999999999917e-01 5.080482329999999713e+00
-2.578673220000000210e+00 7.966537660000000187e+00 1.749555039999999950e+00 -1.339560880000000065e+00 1.892582409999999937e+00 1.752979969999999943e+00 -2.436600000000000137e-03 5.316532249999999848e+00 -3.029346000000000122e-02 -2.623017100000000212e-01 5.361234259999999807e+00 3.444852089999999922e+00 1.271338609999999925e+00 1.805782180000000015e+00 5.018103510000000433e+00 3.259257589999999816e+00 6.173358030000000163e+00 1.754320939999999940e+00 4.568960960000000071e+00 2.747447170000000050e+00 3.393722320000000181e+00 4.239129260000000343e+00 2.822632519999999978e+00 6.930498710000000173e+00 5.678503150000000055e+00 5.989802639999999734e+00 5.144721579999999683e+00 6.924064790000000080e+00 3.658000000000000140e-02 5.152686680000000408e+00 -1.749545560000000055e+00 3.330556159999999988e+00 5.182103660000000112e+00 -1.427303119999999925e+00 7.882370299999999830e+00 5.071474079999999773e+00 1.936979500000000076e+00 3.219380950000000130e+00 1.782081089999999923e+00 2.475223730000000177e+00 4.937353619999999665e+00 5.268288799999999661e+00 5.687409030000000421e+00 4.040960800000000241e-01 1.672869240000000035e+00 5.859254810000000369e+00 5.063489070000000147e+00 1.687134630000000080e+00 1.896520000000000063e-03 2.002662799999999910e-01 2.874443090000000200e+00 -3.767240000000000033e-01 -3.700247999999999732e-02 6.327764450000000096e+00 -2.037402109999999933e+00 7.457880890000000207e+00 6.397287740000000333e+00 -2.229627209999999859e+00 7.280527089999999646e+00 3.969913580000000053e+00 -1.718377730000000048e+00 5.554136640000000291e+00 2.039091270000000122e+00 -1.937162410000000001e+00 4.496987169999999701e+00 4.925828759999999917e+00 -1.022034789999999971e+00 2.792163529999999838e+00 3.969513689999999873e+00 -1.134331970000000078e+00 2.748309110000000111e+00 6.372549349999999890e+00 1.648279999999999884e-02 7.192552380000000412e+00 5.052435499999999635e+00 8.904221399999999731e-01 3.998918440000000185e+00 1.664574840000000000e+00 6.572696700000000281e-01 6.888080030000000242e+00 1.801383560000000106e+00 1.015717879999999962e+00 4.282738939999999772e+00 4.896305820000000253e+00 1.823192259999999898e+00 2.093572260000000185e+00 3.060384780000000138e+00 2.056699629999999779e+00 2.013090619999999831e+00 4.912870999999999766e-01 2.117598099999999928e+00 5.923015379999999830e+00 6.504884930000000232e+00 2.551439600000000141e+00 5.915416079999999965e+00 3.916745090000000040e+00 3.010857960000000055e+00 3.853504290000000054e+00 1.703830600000000084e+00 3.594198009999999943e+00 1.281620930000000103e+00 5.082743210000000289e+00 3.554758259999999837e+00 4.315103539999999960e+00 5.259212230000000154e+00 4.115275030000000278e+00 1.117045749999999948e+00 1.718897169999999974e+00 5.154660930000000363e+00 5.340453339999999827e+00 3.776956399999999991e-01 5.237985110000000333e+00 5.190933730000000246e+00 2.847421950000000201e+00 6.022136879999999692e+00 3.320667100000000094e+00 1.685396899999999976e+00 6.004884610000000400e+00 2.647761029999999849e+00 5.384056529999999618e+00 6.458508519999999642e+00 9.237458899999999584e-01 2.839159819999999890e+00 6.565662249999999922e+00 7.823169500000000109e-01 4.050285599999999819e-01 -3.150658700000000256e-01 2.540137800000000223e-01 1.881381329999999963e+00 -1.340381499999999948e-01 2.272292300000000043e-01 5.475334710000000271e+00
-2.434599980000000219e+00 8.094158410000000359e+00 1.720179450000000054e+00 -1.235432010000000025e+00 2.228007009999999788e+00 1.589508149999999898e+00 6.150100000000000358e-03 5.570973160000000313e+00 4.182211000000000262e-02 -1.303601000000000065e-02 5.461633609999999805e+00 3.525795850000000176e+00 1.416649569999999914e+00 2.102836470000000180e+00 5.504968859999999964e+00 3.590761969999999970e+00 6.249155039999999772e+00 1.657049200000000111e+00 4.927818040000000011e+00 2.591366030000000098e+00 3.471867780000000181e+00 4.906280899999999612e+00 2.904196199999999894e+00 7.261264129999999817e+00 6.099743029999999955e+00 6.118424730000000089e+00 5.155030700000000188e+00 7.326704949999999883e+00 7.311955000000000537e-02 5.321151359999999997e+00 -1.531424909999999917e+00 3.171655059999999970e+00 5.381193839999999895e+00 -1.221047980000000033e+00 8.031269719999999168e+00 5.214858730000000442e+00 1.887597170000000046e+00 3.091238839999999932e+00 1.808930380000000060e+00 2.754034920000000053e+00 5.203369939999999971e+00 5.344865399999999767e+00 6.026577330000000288e+00 1.528045899999999901e-01 1.711163680000000076e+00 6.427218179999999670e+00 4.944165530000000253e+00 1.799192010000000064e+00 1.208789499999999989e-01 -1.413306699999999916e-01 2.960102490000000142e+00 2.926849499999999993e-01 -3.448997200000000207e-01 6.508420339999999804e+00 -1.885148430000000097e+00 7.351502049999999677e+00 6.732490860000000410e+00 -1.961330460000000109e+00 7.416253430000000257e+00 4.021858479999999680e+00 -1.706672600000000095e+00 5.388084309999999988e+00 1.834614039999999946e+00 -1.618108899999999961e+00 4.788469420000000198e+00 5.317858310000000088e+00 -7.517691800000000368e-01 2.788319780000000137e+00 4.111168700000000342e+00 -6.386716300000000457e-01 2.794466809999999857e+00 6.706671059999999684e+00 2.830170300000000028e-01 6.942211180000000148e+00 5.295102059999999611e+00 1.007117089999999937e+00 4.077428280000000349e+00 1.746609370000000050e+00 9.236718200000000323e-01 7.169795340000000294e+00 1.856332279999999946e+00 1.646173579999999914e+00 4.174639729999999993e+00 5.296598020000000240e+00 2.263380699999999912e+00 2.041243789999999780e+00 2.914100669999999838e+00 1.953906369999999892e+00 1.948149490000000039e+00 4.195022099999999865e-01 2.799703909999999851e+00 6.001456870000000166e+00 6.386433209999999860e+00 2.822981780000000107e+00 6.031995860000000320e+00 4.354331290000000187e+00 3.403013389999999916e+00 3.729638720000000074e+00 1.630994999999999973e+00 3.901904079999999997e+00 1.012284259999999936e+00 5.356296099999999782e+00 3.982049560000000099e+00 4.028581479999999715e+00 5.280435350000000305e+00 4.407747770000000287e+00 1.035693369999999947e+00 1.857904360000000032e+00 5.552298219999999951e+00 5.427102109999999868e+00 4.856436900000000167e-01 5.569161570000000339e+00 5.305139610000000339e+00 2.984177040000000058e+00 6.565337719999999599e+00 3.474509900000000151e+00 1.797233400000000092e+00 6.703016640000000415e+00 2.436034569999999899e+00 5.231348190000000287e+00 6.636031339999999723e+00 6.855973699999999837e-01 3.092652310000000071e+00 6.985586009999999568e+00 4.771886200000000078e-01 4.221844000000000152e-01 -2.170257499999999895e-01 -9.512645000000000128e-02 1.897685709999999970e+00 2.047930000000000028e-01 -1.626874100000000045e-01 5.382462839999999638e+00
-2.863002170000000124e+00 8.077064749999999904e+00 1.661770579999999997e+00 -1.191518180000000093e+00 2.080835809999999952e+00 1.947312960000000093e+00 -3.583293599999999857e-01 5.266735180000000405e+00 -1.544919999999999974e-03 -1.943183199999999888e-01 5.096586630000000007e+00 3.506731629999999988e+00 1.046104499999999993e+00 2.161380690000000104e+00 5.270549660000000358e+00 3.351141070000000166e+00 6.025980460000000427e+00 1.672490990000000011e+00 4.545586929999999803e+00 2.532957469999999933e+00 3.593930649999999893e+00 4.471553690000000358e+00 2.688971669999999925e+00 6.889254199999999884e+00 5.621330790000000022e+00 6.062274239999999814e+00 5.154499610000000231e+00 7.081800349999999966e+00 2.001769499999999924e-01 5.251457890000000184e+00 -1.832056619999999914e+00 3.280241760000000006e+00 5.224731349999999885e+00 -1.406893750000000054e+00 7.670534120000000122e+00 5.232296390000000130e+00 2.112095629999999780e+00 2.922246659999999885e+00 1.750544059999999957e+00 2.469819789999999848e+00 5.166293930000000145e+00 5.257891869999999912e+00 5.967376210000000292e+00 1.430667599999999873e-01 1.923103130000000105e+00 6.233650060000000437e+00 4.510883970000000076e+00 1.813722379999999967e+00 -1.875630699999999984e-01 -2.048349499999999879e-01 2.977226270000000063e+00 -1.866063000000000027e-01 8.284534000000000342e-02 6.310561429999999916e+00 -2.241218560000000082e+00 7.264884880000000322e+00 6.618749669999999696e+00 -2.241506750000000103e+00 7.420615790000000267e+00 4.055135909999999733e+00 -1.818871389999999977e+00 5.500153850000000233e+00 1.890888719999999967e+00 -1.998654670000000078e+00 4.810343099999999872e+00 5.071441059999999723e+00 -8.179426100000000144e-01 2.838363109999999967e+00 3.985184170000000137e+00 -1.030230079999999937e+00 2.758850550000000013e+00 6.665606790000000004e+00 -1.346627300000000083e-01 7.046265339999999711e+00 5.109164780000000405e+00 6.758893700000000448e-01 4.267341980000000312e+00 1.824147430000000014e+00 5.559023899999999685e-01 6.923110109999999651e+00 1.732458400000000065e+00 9.984184799999999971e-01 4.386144849999999984e+00 5.003963439999999707e+00 1.798297669999999959e+00 2.006551509999999983e+00 3.220538079999999859e+00 2.008284339999999890e+00 2.069059559999999909e+00 6.141345499999999458e-01 2.398859680000000161e+00 6.114035440000000321e+00 6.416984929999999920e+00 2.528888639999999910e+00 5.951970779999999905e+00 4.075694839999999708e+00 3.332685339999999830e+00 3.517545300000000097e+00 1.802175150000000059e+00 3.881685919999999790e+00 1.358620740000000104e+00 5.505838739999999731e+00 3.704135099999999792e+00 3.952836589999999983e+00 5.282497990000000421e+00 4.267289049999999584e+00 9.465139200000000086e-01 1.858708809999999989e+00 5.432482939999999871e+00 5.323294139999999786e+00 3.814251499999999906e-01 5.562866589999999611e+00 5.132959999999999745e+00 3.027494969999999785e+00 6.296307839999999878e+00 3.328610429999999898e+00 1.502121889999999960e+00 6.445070049999999995e+00 2.898245140000000220e+00 5.288536530000000013e+00 6.664533920000000222e+00 8.421223799999999482e-01 2.915565700000000149e+00 6.885311609999999582e+00 7.717319900000000343e-01 3.493249099999999885e-01 -1.048242999999999918e-02 1.604160199999999925e-01 2.010853050000000142e+00 8.473495000000000332e-02 -2.246746999999999980e-02 5.501626540000000176e+00
-2.480223979999999884e+00 7.884479719999999858e+00 1.682730999999999977e+00 -1.097461610000000087e+00 1.917839969999999949e+00 1.760001289999999941e+00 -2.326566700000000099e-01 5.219949780000000317e+00 2.631669799999999948e-01 1.867161999999999988e-02 5.250578140000000005e+00 3.378476120000000193e+00 1.424146429999999963e+00 2.057080009999999959e+00 5.260944900000000146e+00 3.382489529999999966e+00 6.117482930000000430e+00 1.888921209999999906e+00 4.758301359999999924e+00 2.506721199999999872e+00 3.375444540000000160e+00 4.828740859999999913e+00 2.372564269999999809e+00 6.792703880000000360e+00 5.787768289999999816e+00 6.072650959999999820e+00 5.197535600000000144e+00 7.161676520000000323e+00 -7.379246999999999890e-02 5.172086120000000342e+00 -1.422394630000000104e+00 3.057211269999999814e+00 5.116274660000000196e+00 -1.281643379999999999e+00 7.549270339999999635e+00 5.171285639999999795e+00 2.157399939999999905e+00 2.677376189999999934e+00 1.876159659999999896e+00 2.635341879999999914e+00 4.969533720000000265e+00 5.172874209999999806e+00 5.739863899999999575e+00 3.337631500000000084e-01 1.644264469999999978e+00 6.326190429999999587e+00 4.545665979999999884e+00 1.655878240000000057e+00 -2.557999000000000037e-02 1.902237999999999846e-02 2.871353430000000095e+00 -6.483990000000000239e-03 -7.796105000000000396e-02 6.526241670000000106e+00 -1.995709830000000018e+00 7.118030949999999635e+00 6.352725959999999894e+00 -2.014479000000000131e+00 7.132898759999999783e+00 3.697394769999999831e+00 -1.907216250000000057e+00 5.148950000000000138e+00 1.906992999999999938e+00 -1.594450640000000030e+00 4.518328330000000115e+00 5.158343709999999582e+00 -7.460717000000000043e-01 2.470957340000000002e+00 4.160041709999999782e+00 -7.996783200000000535e-01 2.529333750000000158e+00 6.559074110000000069e+00 1.575007499999999949e-01 6.951886479999999757e+00 4.996687650000000147e+00 8.017452900000000549e-01 3.761455810000000177e+00 1.696747790000000089e+00 7.858004100000000047e-01 6.567151690000000208e+00 1.665044090000000088e+00 1.344338330000000026e+00 3.991510579999999919e+00 5.189146909999999835e+00 2.117668220000000101e+00 1.820141840000000011e+00 2.887173119999999926e+00 2.108858530000000009e+00 1.839430609999999966e+00 4.605318700000000098e-01 2.539892749999999921e+00 5.714836580000000055e+00 6.413126980000000366e+00 2.685696520000000032e+00 5.609617769999999837e+00 4.189307349999999985e+00 3.369773219999999903e+00 3.683173940000000091e+00 1.689464590000000044e+00 4.214581589999999878e+00 1.131689579999999973e+00 5.080332770000000053e+00 3.862090110000000021e+00 3.893956179999999989e+00 5.297807739999999654e+00 4.604535829999999663e+00 9.048078899999999480e-01 1.674724639999999987e+00 5.261058620000000019e+00 5.088485340000000079e+00 3.879353700000000016e-01 5.741074430000000284e+00 5.234338990000000358e+00 3.085406050000000011e+00 6.198485909999999599e+00 3.193314930000000107e+00 1.538898590000000066e+00 6.524714549999999669e+00 2.469872249999999880e+00 5.168408930000000012e+00 6.721913589999999772e+00 5.877011899999999844e-01 3.066795229999999872e+00 6.646827449999999970e+00 5.590576699999999510e-01 7.160147399999999829e-01 8.959201999999999444e-02 -1.159304200000000062e-01 1.908471479999999998e+00 9.275163999999999631e-02 -4.208174100000000029e-01 5.483455560000000339e+00
-2.418587930000000163e+00 8.020863529999999741e+00 1.748371219999999893e+00 -1.341590470000000090e+00 1.966036590000000084e+00 1.609724549999999921e+00 -1.194719399999999987e-01 5.058849040000000130e+00 2.569314200000000215e-01 1.071095000000000033e-02 5.264396409999999804e+00 3.383324909999999797e+00 1.248248489999999933e+00 2.113995029999999886e+00 5.290073320000000301e+00 3.594136980000000037e+00 6.164009359999999660e+00 1.814486030000000083e+00 4.734110160000000178e+00 2.398348459999999793e+00 3.484284810000000121e+00 4.678635779999999578e+00 2.779844740000000147e+00 6.840019159999999765e+00 5.934612170000000297e+00 6.047430710000000431e+00 5.052878599999999665e+00 7.058153220000000339e+00 2.081958999999999893e-01 5.299476430000000349e+00 -1.505632230000000016e+00 3.300328509999999937e+00 5.044883620000000235e+00 -1.118189840000000101e+00 7.935116370000000252e+00 4.958454360000000172e+00 1.897007040000000089e+00 3.202631300000000181e+00 1.761631710000000073e+00 2.585913750000000011e+00 5.092096680000000042e+00 5.349466849999999774e+00 6.060540510000000047e+00 3.250104999999999800e-01 1.656920189999999904e+00 6.284643029999999797e+00 4.964054889999999887e+00 1.671663090000000018e+00 -8.672003000000000350e-02 -2.494816999999999868e-02 3.058144509999999983e+00 -1.333854399999999940e-01 4.440609999999999696e-02 6.589799570000000273e+00 -1.940801730000000003e+00 7.178042269999999725e+00 6.597258049999999763e+00 -1.839071920000000082e+00 7.158065780000000267e+00 4.155747309999999750e+00 -1.924156629999999923e+00 5.574660920000000353e+00 1.757298060000000106e+00 -1.729868849999999902e+00 4.835183080000000189e+00 5.063122850000000064e+00 -7.454262000000000388e-01 2.719473879999999788e+00 4.002188030000000118e+00 -8.325600399999999457e-01 2.668129360000000005e+00 6.549636819999999915e+00 1.123852600000000007e-01 6.994150209999999923e+00 5.278214150000000160e+00 7.833097199999999871e-01 3.959908289999999997e+00 1.582791190000000014e+00 8.415494300000000427e-01 6.686968750000000128e+00 1.767781100000000105e+00 1.368845340000000022e+00 4.043620980000000031e+00 5.167984539999999960e+00 2.299779650000000064e+00 2.108882560000000073e+00 2.832616789999999884e+00 1.896977439999999904e+00 2.141618509999999809e+00 3.749606699999999959e-01 2.618358059999999821e+00 6.120793680000000236e+00 6.490322810000000331e+00 2.611368349999999783e+00 5.894805469999999659e+00 3.877645440000000221e+00 3.392650960000000104e+00 3.729097429999999935e+00 1.787445830000000013e+00 3.726453499999999863e+00 1.375752269999999999e+00 5.137096780000000251e+00 3.762866670000000191e+00 4.249958480000000094e+00 5.009400440000000287e+00 4.664652020000000121e+00 1.096869169999999949e+00 1.780184119999999925e+00 5.406162730000000138e+00 5.268356459999999686e+00 5.227379800000000465e-01 5.702941580000000066e+00 5.307044750000000199e+00 2.889124770000000009e+00 6.340395730000000007e+00 3.248779069999999880e+00 1.787727969999999944e+00 6.558689010000000152e+00 2.695175599999999783e+00 5.185494440000000260e+00 6.558876419999999818e+00 7.250253599999999521e-01 2.913798990000000089e+00 6.796731699999999599e+00 7.753860799999999776e-01 5.765921899999999489e-01 -1.438727900000000004e-01 -1.722882500000000039e-01 1.941029010000000055e+00 1.457874600000000076e-01 -2.282597999999999919e-02 5.450597860000000239e+00
-1.997309149999999978e+00 8.223718460000000618e+00 1.668696160000000095e+00 -1.072721440000000026e+00 1.954644349999999919e+00 1.739240899999999979e+00 -8.513649999999999343e-03 5.571761399999999753e+00 -6.894005000000000272e-02 -4.083390000000000110e-03 5.430114529999999995e+00 3.463446990000000003e+00 1.366603690000000038e+00 1.952550170000000085e+00 5.246047429999999956e+00 3.880926239999999972e+00 6.143133249999999990e+00 1.784929819999999889e+00 4.827960019999999908e+00 2.797690719999999853e+00 3.603618079999999946e+00 4.831814950000000053e+00 2.751446870000000100e+00 6.894413379999999592e+00 6.044733950000000355e+00 6.218600890000000270e+00 5.344246349999999701e+00 7.350671929999999854e+00 4.245919000000000082e-02 5.164755020000000307e+00 -1.643006949999999966e+00 3.209731150000000088e+00 5.410915679999999561e+00 -8.508333599999999830e-01 8.064917519999999840e+00 5.258725160000000010e+00 2.063974829999999816e+00 3.080845580000000083e+00 1.523628729999999987e+00 2.771929909999999886e+00 5.063811600000000190e+00 5.175525099999999767e+00 5.921171619999999969e+00 1.600569799999999876e-01 1.647203919999999933e+00 6.564685629999999605e+00 5.112753289999999673e+00 1.760144869999999973e+00 2.124748300000000034e-01 -8.421787999999999497e-02 3.041082209999999897e+00 4.529522999999999883e-02 -1.667400500000000008e-01 6.606300130000000159e+00 -1.809524829999999973e+00 7.482461260000000003e+00 6.543628319999999832e+00 -1.810102169999999955e+00 7.783128210000000102e+00 3.854289249999999889e+00 -1.728108970000000078e+00 5.825704960000000376e+00 1.817923039999999935e+00 -1.391859350000000051e+00 4.760670539999999562e+00 5.147230999999999668e+00 -8.270649100000000420e-01 2.925560200000000055e+00 3.891150000000000109e+00 -6.247848799999999869e-01 2.747455210000000037e+00 6.569293110000000269e+00 2.388273599999999885e-01 7.161032660000000050e+00 5.239279609999999643e+00 9.430009499999999489e-01 4.039032350000000271e+00 1.814057100000000089e+00 1.076631920000000076e+00 6.856740850000000442e+00 1.762613699999999950e+00 1.643875629999999921e+00 4.276585990000000059e+00 5.271155679999999677e+00 2.079969489999999865e+00 2.046001659999999944e+00 3.063159090000000084e+00 2.000099089999999968e+00 2.034485210000000155e+00 5.911787099999999961e-01 2.591035950000000199e+00 6.020412949999999874e+00 6.737221929999999581e+00 2.879587020000000219e+00 6.159785979999999661e+00 4.019832639999999735e+00 3.326044299999999954e+00 3.775166220000000017e+00 1.675157020000000108e+00 4.047835079999999586e+00 1.221063859999999890e+00 5.306228530000000276e+00 3.943023140000000204e+00 4.223428750000000065e+00 5.222643309999999595e+00 4.421106370000000396e+00 1.027043039999999907e+00 1.772003470000000025e+00 5.852182649999999597e+00 5.532946070000000383e+00 4.618737299999999824e-01 5.566317680000000045e+00 5.388631110000000390e+00 2.900241659999999833e+00 6.385579710000000020e+00 3.278047959999999872e+00 1.689093189999999911e+00 6.668923760000000200e+00 2.542116280000000117e+00 5.366716369999999792e+00 6.491792489999999916e+00 5.997221400000000147e-01 2.887559009999999926e+00 6.885841949999999656e+00 7.762341699999999456e-01 4.653037199999999762e-01 -1.579572999999999949e-01 2.734338999999999867e-02 1.962756210000000001e+00 2.196047499999999875e-01 1.354501700000000086e-01 5.526125979999999771e+00