-1.286112730000000010e+04
-1.287154349999999977e+04
-1.285705129999999917e+04
-1.285611199999999917e+04
-1.286753039999999964e+04
-1.286269659999999931e+04
-1.285592740000000049e+04
-1.286500779999999941e+04
-1.287313210000000072e+04
-1.286569620000000032e+04
-1.287115029999999933e+04
-1.287551989999999932e+04
-1.286176749999999993e+04
-1.286243930000000000e+04
-1.285339249999999993e+04
-1.286379500000000007e+04
-1.286833469999999943e+04
-1.287016690000000017e+04
-1.286095180000000073e+04
-1.286175510000000031e+04
-1.285982109999999921e+04
-1.285988169999999991e+04
-1.285235670000000027e+04
-1.285410549999999967e+04
-1.287013620000000083e+04
-1.286944839999999931e+04
-1.285921810000000005e+04
-1.285683109999999942e+04
-1.285454249999999956e+04
-1.286143130000000019e+04
-1.285708519999999953e+04
-1.287360649999999987e+04
-1.286283100000000013e+04
-1.286626139999999941e+04
-1.286369490000000042e+04
-1.286774910000000091e+04
-1.286341829999999936e+04
-1.285839489999999932e+04
-1.285990999999999985e+04
-1.286112379999999939e+04
-1.286815589999999975e+04
-1.285893610000000081e+04
-1.286141539999999986e+04
-1.288507250000000022e+04
-1.288201729999999952e+04
-1.288225070000000051e+04
-1.288253470000000016e+04
-1.285957359999999971e+04
-1.287072390000000087e+04
-1.285966389999999956e+04
-1.285884799999999996e+04
-1.285871869999999944e+04
-1.287598439999999937e+04
-1.286808430000000044e+04
-1.285310000000000036e+04
-1.286246899999999914e+04
-1.286476779999999962e+04
-1.286887240000000020e+04
-1.286511900000000060e+04
-1.286240079999999944e+04
-1.286614480000000003e+04
-1.285431019999999990e+04
-1.286501310000000012e+04
-1.284485390000000007e+04
-1.285936410000000069e+04
-1.286743510000000060e+04
-1.285717629999999917e+04
-1.287264329999999973e+04
-1.286212769999999909e+04
-1.286692510000000038e+04
-1.285811160000000018e+04
-1.286022530000000006e+04
-1.286519900000000052e+04
-1.286117799999999988e+04
-1.286735219999999936e+04
-1.286296869999999944e+04
-1.285799599999999919e+04
-1.286476820000000043e+04
-1.284860889999999927e+04
-1.286823610000000008e+04
-1.286310809999999947e+04
-1.286816179999999986e+04
-1.285884089999999924e+04
-1.286288780000000042e+04
-1.285158109999999942e+04
-1.287324760000000060e+04
-1.285201380000000063e+04
-1.286026029999999992e+04
-1.285687449999999990e+04
-1.286315990000000056e+04
-1.283411319999999978e+04
-1.287168080000000009e+04
-1.286926800000000003e+04
-1.286229320000000007e+04
-1.285805229999999938e+04
-1.286248450000000048e+04
-1.286889689999999973e+04
-1.286472880000000077e+04
-1.285734319999999934e+04
-1.285458020000000033e+04
-1.286285330000000067e+04
-1.286839749999999913e+04
-1.287215400000000045e+04
-1.287353149999999914e+04
-1.286135579999999936e+04
-1.286176740000000063e+04
-1.284794280000000072e+04
-1.286309310000000005e+04
-1.286883510000000024e+04
-1.285799059999999918e+04
-1.287122170000000006e+04
-1.286951859999999942e+04
-1.287070950000000084e+04
-1.285684790000000066e+04
-1.286679060000000027e+04
-1.285216389999999956e+04
-1.285171240000000034e+04
-1.285675599999999940e+04
-1.285887219999999979e+04
-1.286563190000000031e+04
-1.286513609999999971e+04
-1.286448400000000038e+04
-1.286285030000000006e+04
-1.285411379999999917e+04
-1.286431240000000071e+04
-1.286047819999999956e+04
-1.284758129999999983e+04
-1.286439120000000003e+04
-1.286491549999999916e+04
-1.286880659999999989e+04
-1.285875729999999930e+04
-1.286849769999999990e+04
-1.286128149999999914e+04
-1.286488199999999961e+04
-1.286602330000000075e+04
-1.285223420000000078e+04
-1.287127770000000055e+04
-1.286032320000000072e+04
-1.286386870000000090e+04
-1.286745169999999962e+04
-1.285909679999999935e+04
-1.286880999999999949e+04
-1.286335009999999966e+04
-1.285568820000000051e+04
-1.283609679999999935e+04
-1.286002779999999984e+04
-1.286676469999999972e+04
-1.286813700000000063e+04
-1.286044939999999951e+04
-1.285611080000000038e+04
-1.286081569999999920e+04
-1.286580919999999969e+04
-1.287019809999999961e+04
-1.285531359999999950e+04
-1.287365849999999955e+04
-1.286842849999999999e+04
-1.286119549999999981e+04
-1.287218050000000039e+04
-1.285350129999999990e+04
-1.287443339999999989e+04
-1.286106630000000041e+04
-1.284118529999999919e+04
-1.283454700000000048e+04
-1.286557099999999991e+04
-1.286538149999999951e+04
-1.285226900000000023e+04
-1.286829980000000069e+04
-1.285071880000000056e+04
-1.286864739999999983e+04
-1.286505179999999928e+04
-1.286092100000000028e+04
-1.286858710000000065e+04
-1.286445319999999992e+04
-1.286799740000000020e+04
-1.286218200000000070e+04
-1.283157090000000062e+04
-1.286505620000000090e+04
-1.287364060000000063e+04
-1.286001029999999992e+04
-1.287005440000000090e+04
-1.285306970000000001e+04
-1.285843980000000010e+04
-1.286710130000000026e+04
-1.286887889999999970e+04
-1.285918490000000020e+04
-1.285345869999999923e+04
-1.286445440000000053e+04
-1.285623879999999917e+04
-1.285967629999999917e+04
-1.286385909999999967e+04
-1.285493829999999980e+04
-1.284751549999999952e+04
