7.679800000000000515e-02 1.298780000000000046e+00 2.747099999999999889e-02 5.189169999999999616e-01 1.889791999999999916e+00 -2.960840000000000138e-01 -2.734739999999999949e-01 -7.508390000000000342e-01 -3.846204000000000178e+00 6.632759999999999767e-01 -2.043706999999999940e+00 4.498764000000000429e+00 5.310519000000000212e+00 -3.389937999999999896e+00 1.096310000000000062e-01 -8.830670000000000464e-01 -3.269099999999999784e-01 -4.030429999999999846e-01 -1.446511000000000102e+00 1.120229999999999976e-01 3.485949999999999882e+00 8.219649999999999457e-01 5.006891999999999676e+00 -4.978488999999999720e+00 -7.699040000000000328e-01 1.174638000000000071e+00 2.208426999999999918e+00 2.964069999999999760e-01 4.478902999999999857e+00 -1.549649999999999916e-01 -2.112849500000000091e+01 2.099985000000000213e+00 7.276991999999999905e+00 -8.672625999999999280e+00 1.372027100000000033e+01 -1.009753800000000012e+01 2.095645999999999898e+00 -1.519833999999999907e+00 2.352470999999999979e+00 -6.530040000000000289e-01 -2.225692700000000102e+01 4.086579999999999657e+00 -8.670524999999999594e+00 -5.366329000000000349e+00 -2.209734999999999783e+00 -5.782182999999999851e+00 -6.066683000000000270e+00 -4.289163000000000281e+00 4.024899999999999700e+00 7.058303000000000438e+00 5.630044800000000293e+01 2.146840000000000137e-01 -1.273390000000000077e-01 1.243038000000000087e+00 -3.910908000000000051e+00 -2.399604000000000070e+00 6.989283000000000357e+00 1.116805000000000048e+00 -3.208770000000000233e-01 1.772998999999999992e+00 8.775309999999999500e-01 1.150703000000000031e+00 -2.665139999999999731e-01 8.056210000000000315e-01 1.004506800000000055e+01 -1.614740000000000064e-01 9.283751000000000531e+00 -6.630358000000000196e+00 -1.865403500000000037e+01 5.935634000000000299e+00 -5.208286000000000193e+00 1.220034099999999988e+01 1.167217899999999986e+01 -6.694777000000000200e+00 -7.039600000000000302e-01 -4.145357999999999876e+00 2.604025000000000034e+00 5.784899999999999765e-02 3.329086000000000212e+00 6.313069999999999737e+00 -4.315470000000000139e-01 8.949510000000000520e-01 3.214579000000000075e+00 -2.021560000000000024e-01 -1.104627999999999943e+00 -1.945770999999999917e+00 2.977523000000000142e+00 -1.540261000000000102e+00 -2.164454999999999796e+00 -4.239678999999999753e+00 -4.360910000000000064e-01 5.911431000000000324e+00 9.893114000000000630e+00 8.594730000000000425e-01 1.052413699999999963e+01 -1.533269699999999958e+01 3.149122000000000199e+00 3.539245000000000196e+00 -4.400640000000000107e-01 -1.162009999999999987e+00 -6.271800999999999959e+00 1.610413000000000094e+00 -1.177270000000000039e+00 2.998534999999999950e+00 1.884573999999999971e+00 2.142878000000000061e+00 -5.313788999999999874e+00 4.425634999999999764e+00 1.544346999999999914e+00 8.051850000000000396e-01 2.879817000000000071e+00 8.179189999999999516e-01 4.880039999999999933e-01 -1.170587000000000044e+00 1.678066000000000058e+00 3.942492000000000107e+00 -2.266730000000000134e-01 3.458562999999999832e+00 -3.531139999999999834e-01 -1.689947000000000088e+00 2.100166999999999895e+00 -9.525899999999999646e-02 4.452012999999999998e+00 2.439116999999999980e+00 -1.150058999999999942e+00 -3.618675000000000086e+00 -3.690669999999999895e+00 -7.719691000000000081e+00 -5.603977600000000336e+01 -6.915120000000000156e-01 -2.559580000000000188e-01 -1.290732999999999908e+00
-4.734289999999999887e-01 -9.276109999999999634e-01 4.736553999999999931e+00 7.023488000000000397e+00 5.533050000000000468e-01 -1.391807999999999934e+00 -2.456974999999999909e+00 3.160319999999999796e-01 1.020261000000000084e+00 2.947299999999999920e-02 -2.313391999999999893e+00 -1.519309000000000021e+00 -1.319369999999999932e+00 2.400220000000000131e-01 1.453637000000000068e+00 3.202109000000000094e+00 -1.983581999999999956e+00 5.145045999999999786e+00 1.770740000000000092e-01 6.401360000000000383e-01 -2.709206000000000003e+00 -1.695211000000000023e+00 -2.131820999999999966e+00 4.004032999999999731e+00 1.367493999999999987e+00 4.419770000000000088e-01 6.098949999999999649e-01 8.383530000000000149e-01 4.527205999999999619e+00 4.498759999999999981e-01 -6.045950999999999631e+00 7.932590000000000474e-01 -3.501805000000000057e+00 -2.433504999999999807e+00 -1.126265099999999997e+01 9.006190000000000140e+00 6.968379999999999574e-01 5.389808000000000376e+00 -1.048965199999999953e+01 1.136569999999999941e-01 -8.637577000000000282e+00 -2.212161000000000044e+00 -9.810195000000000221e+00 1.288610000000000033e-01 -5.038674000000000319e+00 3.367407000000000039e+00 4.641754999999999853e+00 1.056549099999999974e+01 1.007727000000000039e+00 -7.258329999999999504e-01 -1.369931999999999928e+00 -2.042000000000000065e-02 6.177700000000000413e-01 -3.928396999999999917e+00 3.767942999999999820e+00 1.900030000000000052e-01 -8.177265999999999480e+00 -4.838398999999999894e+00 -2.156163999999999970e+00 -5.864505000000000301e+00 -1.815938000000000052e+00 -1.950514999999999999e+00 -1.939902000000000015e+00 5.171790000000000553e-01 -1.569898000000000016e+00 9.910199999999999565e-02 8.462000000000000771e-03 1.100489999999999940e-01 1.244822000000000095e+00 2.069484000000000101e+00 -9.740590000000000082e-01 2.352730000000000210e+00 2.907392000000000198e+00 -3.898090000000000166e-01 1.803722000000000047e+00 1.763430999999999971e+00 -2.836028999999999911e+00 1.439340000000000064e+00 7.032920000000000282e-01 4.174177000000000248e+00 1.111720000000000069e-01 -2.906972999999999807e+00 -7.290180000000000549e-01 -1.452209999999999890e-01 -4.840050000000000185e-01 -4.505455000000000432e+00 8.089793999999999485e+00 -1.047989000000000059e+00 5.859586000000000183e+00 -5.512430000000000385e-01 -3.814130000000000020e-01 2.855148999999999937e+00 -3.236413999999999902e+00 1.894397000000000109e+00 2.342303999999999942e+00 1.166589999999999988e-01 -1.649127999999999927e+00 -2.559647000000000006e+00 2.090600000000000097e-02 1.695403999999999911e+00 1.148663799999999924e+01 4.824879999999999725e-01 1.789739999999999942e-01 3.347224999999999895e+00 -7.776990000000000292e-01 2.669919000000000153e+00 -2.434123000000000037e+00 1.723624000000000045e+00 -3.076954000000000189e+00 1.157192999999999916e+00 -5.465799999999999770e+00 3.228519999999999723e-01 -2.170764999999999834e+00 -2.936567999999999845e+00 -2.197381000000000029e+00 2.831971999999999934e+00 -1.570435000000000025e+00 5.259699000000000346e+00 8.345179999999999820e-01 -1.600864999999999982e+00 1.658660000000000023e+00 -1.086411999999999933e+00 3.759072999999999887e+00 1.622789000000000037e+00 -2.519449999999999967e+00 7.647000000000000464e-01 -1.156354000000000104e+00 1.750606000000000106e+00 1.792345000000000077e+00 -1.049557000000000073e+00 -1.370916000000000023e+00 3.567797000000000107e+00
-3.448999999999999844e-01 -2.024691999999999936e+00 1.769687000000000010e+00 -2.335484999999999811e+00 -2.972042000000000073e+00 -1.819433999999999996e+00 8.836509999999999643e-01 9.561460000000000514e-01 3.089042000000000066e+00 1.665243000000000029e+00 4.008090000000000264e-01 -4.806846000000000174e+00 9.146199999999999886e-01 3.023259999999999836e-01 -2.370103999999999989e+00 4.584349999999999814e-01 5.267231999999999914e+00 -3.761849000000000220e+00 -2.476173000000000179e+00 -5.477840000000000487e-01 1.975082999999999922e+00 1.310993999999999993e+00 4.306822000000000372e+00 1.190849999999999964e+00 -2.267711999999999950e+00 -5.948660000000000059e-01 1.314970000000000028e-01 -5.539647999999999683e+00 1.940760999999999958e+00 -6.054169999999999829e-01 1.161613000000000007e+00 -6.322601999999999833e+00 3.142517999999999923e+00 1.589998499999999915e+01 2.471954600000000113e+01 2.760294499999999829e+01 1.588886000000000021e+00 -2.366025000000000045e+00 -1.640835000000000043e+00 5.378201999999999927e+00 -7.933055999999999663e+00 2.163431000000000104e+00 1.777637599999999907e+01 -1.314840300000000006e+01 -2.164860000000000007e+00 9.155846999999999625e+00 2.610842099999999988e+01 -1.612980500000000106e+01 -2.261579999999999979e-01 -2.206079999999999985e-01 -4.135282000000000124e+00 -3.389510000000000023e-01 -6.193380000000000551e-01 -4.195511999999999908e+00 -1.410782999999999898e+00 -1.882840999999999987e+00 8.525838999999999501e+00 -3.317909600000000125e+01 -9.168965999999999283e+00 -3.768171199999999743e+01 -1.572219000000000033e+00 7.710780000000000411e-01 6.640100000000000169e-02 -1.723462999999999967e+00 1.912781000000000065e+00 1.790360000000000007e-01 -9.152390000000000247e-01 1.405110000000000081e+00 4.155922000000000338e+00 -2.230523999999999951e+00 1.158125999999999989e+00 -7.333079999999999821e+00 1.883877100000000127e+01 -1.004743299999999984e+01 4.561459999999999959e-01 -1.639242000000000088e+00 1.808978999999999893e+00 1.628030000000000088e+00 -1.187245000000000106e+00 1.771816000000000058e+00 1.108190000000000008e+00 -1.857026999999999983e+00 1.234877000000000002e+00 -1.631334000000000062e+00 -1.351833999999999980e+00 4.801860000000000017e-01 -1.584575000000000067e+00 1.036521999999999943e+00 -2.070230000000000126e-01 4.478706999999999994e+00 -1.049816000000000082e+00 3.276841999999999810e+00 8.420700000000000407e-02 -2.375033999999999867e+00 -2.678479999999999750e-01 4.501567999999999792e+00 9.172019999999999618e-01 -3.537202000000000179e+00 7.509510000000000352e-01 -5.683319999999999483e-01 -4.704723000000000432e+00 -3.771869000000000138e+00 3.329900000000000082e-01 1.825077999999999978e+00 -2.614228999999999914e+00 -1.316776199999999974e+01 7.092893000000000114e+00 -1.259378000000000108e+00 7.504589999999999872e-01 3.098190000000000111e-01 9.640109999999999513e-01 -1.071454499999999932e+01 7.798348999999999975e+00 1.718888499999999908e+01 4.489939999999999820e+00 -3.404305099999999840e+01 -1.846387999999999918e+00 2.057821999999999818e+00 2.089995000000000047e+00 1.563315000000000010e+00 5.310190000000000188e-01 8.355289999999999662e-01 2.885102999999999973e+00 -2.659316000000000013e+00 1.592533999999999894e+00 4.580560000000000187e-01 9.565620000000000234e-01 6.705449999999999466e-01 4.493890000000000384e+00 5.044355000000000366e+00 5.752920000000000256e-01 4.826325999999999894e+00
1.230228000000000099e+00 2.566460999999999881e+00 -7.896410000000000373e-01 2.985844000000000165e+00 1.220752599999999966e+01 -2.329244999999999788e+00 -2.406099999999999905e-02 1.142727000000000048e+00 1.267714999999999925e+00 3.627749000000000112e+00 3.151399999999999757e-01 6.489660000000000428e-01 -2.098199000000000147e+00 2.411547999999999803e+00 3.550387999999999877e+00 -2.545395000000000074e+00 1.200890000000000013e+00 5.377800000000000358e-01 -1.142279999999999962e-01 -1.012556000000000012e+00 1.833609000000000044e+00 5.255220000000000447e-01 -2.457291999999999810e+00 -1.778134000000000103e+00 -4.260913999999999646e+00 -1.219049999999999995e-01 2.376860000000000084e-01 -3.223212000000000188e+00 2.631729999999999903e-01 -1.850155999999999912e+00 1.535632000000000108e+00 -4.152581299999999942e+01 5.722063999999999595e+00 7.758774999999999977e+00 3.120270999999999795e+00 2.579165999999999848e+00 -1.281719299999999961e+01 -3.370914799999999900e+01 2.203323000000000143e+00 -3.022691700000000026e+01 1.971458300000000108e+01 -3.993361000000000161e+00 -6.616770999999999958e+00 -5.398359000000000130e+00 -2.528671000000000113e+00 1.694547899999999885e+01 -9.783715000000000828e+00 -1.182013500000000050e+01 -9.651790000000000092e-01 2.692729999999999846e-01 -1.940523999999999916e+00 7.198000000000000405e-03 -4.111179999999999835e-01 2.896488000000000174e+00 -1.911796999999999969e+00 -1.624068999999999985e+00 1.955589999999999939e+00 -1.911145000000000094e+00 2.699860000000000038e-01 -4.025492999999999988e+00 -6.188616999999999813e+00 1.444640000000000091e-01 -5.636265999999999998e+00 -5.201674999999999827e+00 4.282029699999999650e+01 -6.712070999999999898e+00 2.012903999999999805e+00 -2.385219000000000200e+00 -3.419121000000000077e+00 4.286014999999999908e+00 1.761400000000000118e-02 5.433048000000000322e+00 -8.925650000000000528e-01 -4.816070000000000073e-01 -4.372030000000000083e-01 -1.839299700000000115e+01 1.201186099999999968e+01 -1.168253999999999904e+00 8.570210000000000328e-01 2.965456000000000092e+00 -5.216349999999999598e-01 2.536735999999999880e+00 -1.075658000000000003e+00 2.464382000000000073e+00 1.407948999999999895e+00 2.653033000000000197e+00 -5.019035999999999831e+00 -8.558170000000000499e-01 2.792931999999999970e+00 1.553382999999999958e+00 1.254388999999999976e+00 -1.072478999999999960e+00 -1.015503000000000045e+00 5.204429999999999890e-01 3.480539999999999745e-01 1.652209999999999956e+00 2.967343400000000031e+01 1.632304200000000094e+01 -6.658830000000000027e-01 -6.026479999999999615e-01 -4.472630000000000217e-01 -6.556279999999999886e-01 2.774609699999999890e+01 -1.760642899999999855e+01 6.568110000000000337e-01 4.243739999999999846e+00 -1.582845999999999975e+00 -8.422599999999999532e-02 -7.845210000000000239e-01 2.119682000000000066e+00 -9.510009999999999852e-01 -1.067094400000000043e+01 4.363482999999999556e+00 1.697184899999999885e+01 -8.519999999999999796e-03 3.795275000000000176e+00 -6.092600000000000238e-01 -2.166110999999999898e+00 4.383800000000000197e-02 -1.823282999999999987e+00 -1.967235000000000067e+00 -1.643914000000000097e+00 5.929310000000000080e+00 -2.299793000000000198e+00 -1.642223999999999906e+00 5.985570000000000057e-01 5.898676000000000030e+00 -7.948787000000000269e+00 3.108280999999999850e+00 1.659416000000000002e+00 -2.004589000000000176e+00 -2.013891000000000098e+00
-5.373900000000000343e-01 1.793481000000000103e+00 1.134279999999999955e+00 1.584154999999999980e+00 -3.062819000000000180e+00 3.344231000000000176e+00 -9.994220000000000326e-01 4.961849999999999872e-01 -8.220389999999999642e-01 2.416719999999999979e-01 -1.113460000000000005e-01 9.199429999999999552e-01 -7.724020000000000330e-01 -2.735923000000000105e+00 -2.949997999999999898e+00 -1.442774999999999919e+00 -2.021034000000000219e+00 7.366699999999999637e-02 -8.770780000000000243e-01 8.220659999999999634e-01 1.619326999999999961e+00 1.623159999999999936e+00 -2.513358000000000203e+00 -4.946642999999999901e+00 -2.040675999999999934e+00 -1.428492000000000095e+00 1.183160999999999907e+00 -3.219500000000000139e-01 -1.137931999999999944e+00 -2.344520999999999855e+00 1.926396999999999915e+00 3.130669999999999842e+00 3.263469999999999982e-01 1.081712000000000007e+00 -2.112684600000000046e+01 4.676148000000000415e+00 1.853219899999999853e+01 -1.738875399999999871e+01 -2.848084000000000060e+00 3.509831999999999841e+00 -2.654306100000000157e+01 3.183849999999999736e-01 3.206649999999999778e-01 2.002564599999999828e+01 -4.948989999999999778e-01 -2.977440000000000087e+00 2.906216000000000133e+00 -3.212225999999999804e+00 -1.417062000000000044e+00 4.626620000000000177e-01 -3.330149000000000026e+00 -2.559440000000000048e-01 9.610269999999999646e-01 -3.905340999999999951e+00 1.069569999999999910e+00 7.593809999999999727e-01 -5.449741000000000390e+00 -6.884160000000000279e-01 3.389499999999999735e-01 -2.018388999999999989e+00 4.777306000000000274e+00 2.945908000000000193e+00 -4.953899999999999970e-02 2.390609999999999957e-01 -1.882339999999999902e+00 6.038780000000000259e-01 1.872700000000000031e+00 -7.038739999999999997e-01 -1.850465000000000027e+00 -8.151140000000000052e-01 1.382613000000000092e+00 -3.697922999999999849e+00 -2.074733999999999856e+00 3.368203999999999976e+00 -5.129219999999999891e-01 -1.413831399999999938e+01 1.408733600000000052e+01 -1.815329999999999999e-01 -3.747564000000000117e+00 -2.053865000000000052e+01 1.024990999999999985e+00 -4.389382000000000339e+00 1.313731999999999900e+00 -1.507799999999999939e-02 -2.379198000000000146e+00 1.636759999999999882e-01 2.051841000000000026e+00 -6.972329999999999917e-01 2.501724999999999977e+00 4.938888999999999641e+00 6.272870000000000390e-01 1.152014100000000063e+01 2.132308799999999849e+01 1.196199000000000012e+00 1.480568799999999996e+01 -2.284975599999999929e+01 -3.617353000000000041e+00 2.716699999999999893e+00 3.094262000000000068e+00 3.551712000000000202e+00 1.769738900000000115e+01 8.997829999999999995e-01 7.305610000000000159e-01 1.281444000000000027e+00 4.289850000000000052e-01 4.495326999999999629e+00 -1.955487999999999893e+00 -2.083060999999999829e+00 1.376670000000000060e+00 -3.854159999999999808e-01 1.207635999999999932e+00 -1.329804999999999904e+00 1.681449999999999889e+00 2.536338000000000203e+00 -1.814427000000000012e+00 -5.460441000000000322e+00 -4.573729999999999740e-01 -3.038999000000000006e+00 -8.432250000000000023e-01 1.583342000000000027e+00 7.310250000000000359e-01 6.916349999999999998e-01 -9.626339999999999897e-01 -1.989511000000000029e+00 7.193060000000000009e-01 3.478158999999999779e+00 2.662812999999999874e+00 1.495867000000000058e+00 4.092122999999999955e+00 2.258400000000000130e-01 -2.187689999999999912e-01 4.129745999999999917e+00
2.405330000000000190e+00 -2.995620000000000172e+00 7.699190000000000200e-01 6.769239999999999702e-01 6.244150000000000533e-01 -2.392600999999999978e+00 1.055409999999999959e-01 1.017470000000000097e+00 1.024235000000000007e+00 -3.481132000000000115e+00 4.276438999999999879e+00 -1.255986999999999965e+00 1.064550000000000107e+00 -1.843568000000000096e+00 1.178050000000000042e+00 8.292299999999999671e-02 -2.804740000000000011e-01 -2.478619999999999990e-01 -3.832349999999999923e-01 -1.846849999999999881e-01 3.733699999999999797e-01 2.766106000000000176e+00 1.109941999999999984e+00 3.994940999999999853e+00 2.859070000000000222e-01 -1.110834000000000099e+00 3.966589999999999838e-01 -7.246800000000000463e-02 -6.484820000000000029e-01 -1.160598999999999936e+00 1.574304500000000040e+01 3.410681999999999992e+00 1.304931999999999981e+00 -6.344825000000000159e+00 8.738675999999999888e+00 6.819847000000000214e+00 -1.746988100000000088e+01 -3.240279999999999827e-01 9.542040999999999329e+00 -6.002720000000000278e-01 -9.730404999999999305e+00 3.042062000000000044e+00 -5.467359000000000080e+00 1.305502500000000055e+01 -1.178017299999999956e+01 1.998050000000000104e+00 4.321416500000000127e+01 3.506622000000000128e+00 7.859500000000000375e-01 1.417829000000000006e+00 -1.868090999999999946e+00 -2.396050999999999931e+00 8.049889999999999546e-01 7.696742999999999668e+00 1.979678000000000049e+00 1.538370000000000015e-01 -3.159422999999999870e+00 -3.110888999999999793e+00 -3.222369999999999957e-01 -3.938811999999999980e+00 -3.158256000000000174e+00 -3.393267999999999951e+00 -6.305479999999999974e-01 2.265115000000000212e+00 1.412690999999999919e+00 4.337539999999999729e-01 -2.495245999999999853e+00 -2.283449999999999924e-01 2.505905999999999967e+00 -6.085540000000000393e-01 1.661343000000000014e+00 -3.782223000000000113e+00 8.650380000000000180e+00 -3.731660000000000199e+00 -3.687130000000000130e-01 5.571922999999999959e+00 -5.217768999999999657e+00 -3.141545999999999950e+00 -2.406016999999999850e+00 -1.498958499999999994e+01 -9.195309999999999873e-01 4.631565000000000154e+00 1.231150000000000022e-01 5.038329000000000057e+00 1.488841999999999999e+00 2.328472000000000097e+00 -5.053857999999999961e+00 -1.813787999999999956e+00 -3.951182999999999890e+00 -6.872142000000000195e+00 6.585699999999999887e-02 7.717659999999999521e-01 3.274976999999999805e+00 1.864802000000000071e+00 5.642234000000000194e+00 -8.732604000000000255e+00 1.294958699999999929e+01 8.233280999999999850e+00 9.773619999999999530e-01 -1.561164999999999914e+00 -6.552743999999999680e+00 -4.293700000000000294e+00 -3.335827000000000098e+00 4.121147999999999811e+00 -7.285669999999999646e-01 4.652389000000000330e+00 -3.588359999999999883e-01 3.060309999999999975e-01 4.419460000000000055e-01 -1.933640999999999943e+00 3.729363999999999901e+00 -2.643759000000000192e+00 -6.174690000000000456e-01 1.731163999999999925e+00 2.131234000000000073e+00 -3.622192199999999929e+01 -7.462936000000000014e+00 -1.677815599999999918e+01 -7.689611000000000196e+00 -3.171550000000000202e-01 5.139515000000000278e+00 3.907518000000000047e+00 9.096825000000000827e+00 -2.464059999999999917e+00 -1.232069999999999999e+00 6.067397999999999847e+00 -2.192321000000000186e+00 -2.637785000000000046e+00 2.753423000000000176e+00 1.032891999999999921e+00 2.195789999999999964e-01 -7.446473000000000120e+00
-4.979580000000000117e-01 -3.540772000000000030e+00 -6.725980000000000292e-01 1.156350000000000017e-01 7.336289999999999756e-01 5.788470000000000004e-01 1.021419000000000077e+00 -8.516209999999999614e-01 -3.549834000000000156e+00 -3.193599999999999772e-01 -1.263269999999999949e-01 1.578103999999999951e+00 2.459129999999999927e-01 -7.630981000000000236e+00 3.268199999999999994e-01 -1.498572999999999933e+00 -3.468947000000000003e+00 -1.463918999999999970e+00 1.268507000000000051e+00 2.086943999999999910e+00 2.564099000000000128e+00 -4.056969999999999743e-01 2.777877000000000152e+00 -1.070348999999999995e+00 5.504965999999999582e+00 -1.234180100000000024e+01 -2.264730000000000132e+00 -3.591969999999999885e-01 1.267584999999999962e+00 9.442420000000000258e-01 -1.400580500000000050e+01 2.872602999999999795e+00 1.792003100000000160e+01 6.912768999999999942e+00 3.879359000000000002e+00 -9.613174000000000774e+00 -3.322369999999999823e+00 1.723296600000000112e+01 -1.844146999999999892e+01 -3.621759999999999979e-01 -3.371055100000000238e+01 3.933424200000000326e+01 1.596569399999999916e+01 -2.157038100000000114e+01 1.616123699999999985e+01 -1.307714900000000036e+01 1.391292600000000057e+01 6.087679999999999758e-01 3.960960000000000036e-01 -3.518500000000000100e-02 2.591769999999999907e-01 2.560760000000000258e-01 -1.036283999999999983e+00 -3.523346000000000089e+00 -2.580033999999999939e+00 -1.369258000000000086e+00 4.987279000000000018e+00 9.355139999999999567e-01 1.283388999999999891e+00 4.849823999999999913e+00 1.299977400000000038e+01 4.123185000000000322e+00 -1.197249999999999925e+00 4.974210000000000020e-01 5.272809999999999775e+00 -8.576599999999999502e-02 1.162902500000000039e+01 -9.104260999999999271e+00 -1.693442399999999992e+01 1.100310000000000038e-01 8.412039999999999518e-01 -1.841461000000000015e+00 2.664179999999999882e-01 -2.540328999999999837e+00 1.273771999999999904e+00 1.968291000000000013e+00 -2.933105999999999991e+00 1.861544000000000088e+00 -6.539179999999999993e-01 3.325690999999999953e+00 1.023254000000000108e+00 -1.086947000000000108e+00 7.447148999999999575e+00 -1.064232000000000067e+00 -6.079139999999999544e-01 -1.070193199999999933e+01 1.530800900000000020e+01 4.254490000000000216e-01 5.425990000000000535e-01 1.948374000000000050e+00 -2.112110000000000098e-01 3.963525999999999883e+00 6.087182999999999566e+00 2.341480999999999923e+00 2.885244099999999889e+01 -4.473524199999999951e+01 -2.347579999999999945e-01 -1.458410999999999902e+00 1.462566000000000033e+00 -3.909038999999999930e+00 -1.617815000000000003e+00 3.637460000000000138e-01 -8.723210000000000131e-01 5.125049999999999883e-01 -1.169151999999999969e+00 -2.494392099999999957e+01 1.202463999999999977e+01 5.142649999999999721e-01 3.351255999999999791e+00 9.593300000000000438e-02 2.746620000000000061e+00 -2.706300000000000150e+00 -2.151247999999999827e+00 -1.950493999999999950e+00 2.552949999999999942e-01 -1.478566000000000003e+01 5.429099999999999898e-02 6.967600000000000460e-01 -1.923279999999999990e-01 -2.760589999999999988e-01 -2.040456999999999965e+00 1.015270000000000061e-01 -2.648229000000000166e+00 1.283106199999999930e+01 4.445545000000000080e+00 -1.586315800000000031e+01 8.212970000000000548e-01 2.273913999999999991e+00 3.760729999999999906e-01 -7.112714000000000425e+00 1.130353999999999992e+01 5.257285000000000430e+00
7.274899999999999423e-02 2.352500000000000077e-02 -1.312904000000000071e+00 2.391071000000000168e+00 1.492118000000000055e+00 2.747859000000000052e+00 -4.255637000000000114e+00 6.502892000000000117e+00 -7.238895000000000302e+00 2.144890000000000130e-01 1.970915999999999890e+00 1.609423999999999966e+00 -3.521630000000000038e-01 -8.379906999999999329e+00 -1.415407000000000082e+00 -5.229356000000000115e+00 -7.828170000000000073e+00 -5.287889999999999535e-01 1.012993999999999950e+00 4.819739000000000217e+00 -1.019103000000000092e+00 -2.174299999999999844e-02 5.058009999999999451e-01 1.349793999999999938e+00 -4.726099999999999746e-01 -9.120629999999999571e-01 1.607391999999999932e+00 1.146857000000000015e+00 -6.984169999999999545e-01 -1.387672000000000017e+00 -8.391161000000000314e+00 3.492870000000000141e-01 1.065682100000000077e+01 6.188388999999999918e+00 -1.831118999999999941e+00 1.863544900000000126e+01 1.625772399999999962e+01 -1.358785199999999982e+01 -2.255435999999999996e+00 -1.435808999999999891e+00 1.718255000000000088e+00 -5.906698999999999700e+00 -1.376886400000000066e+01 -9.837630000000000763e+00 2.997752000000000194e+00 5.398957000000000228e+00 -8.443205000000000737e+00 -4.052064999999999806e+00 -2.447169999999999901e-01 -3.246470000000000189e-01 -3.687761000000000067e+00 1.599828999999999946e+00 -3.219040000000000235e-01 -4.498033000000000392e+00 8.302610000000000268e-01 2.336936000000000124e+00 -2.985736999999999863e+00 -1.047693800000000053e+01 -7.185872999999999955e+00 -1.470865599999999951e+01 3.757969000000000115e+00 -4.762799999999999673e-02 -5.590220000000000189e-01 1.818934999999999969e+00 -1.115839000000000025e+00 -4.126599999999999713e-02 4.658373000000000097e+00 -3.240437000000000012e+00 -7.494602000000000430e+00 -5.229780000000000539e-01 2.740489000000000175e+00 -4.659067000000000291e+00 2.923808999999999880e+00 1.963389999999999969e+00 -9.661189999999999500e-01 -8.901989000000000374e+00 4.373327999999999882e+00 4.676018000000000008e+00 8.930679999999999730e-01 2.562837000000000032e+00 -1.249241999999999964e+00 -3.309460000000000179e-01 8.820467999999999975e+00 9.252679999999999794e-01 -3.460350000000000037e+00 -9.837460000000000093e-01 3.021748000000000101e+00 6.651700000000000390e-01 2.018216999999999928e+00 4.306898000000000337e+00 -3.406899999999999928e-01 -4.715920000000000112e-01 1.117196000000000078e+00 -1.458469000000000015e+00 8.695330000000000004e-01 2.310261999999999816e+00 -5.983819999999999695e-01 3.075781000000000098e+00 -1.374964000000000075e+00 4.681759999999999811e-01 4.203337999999999575e+00 3.790769999999999973e-01 5.217827999999999911e+00 -3.505967000000000056e+00 1.613523999999999958e+00 -1.560708999999999902e+00 -1.930590999999999946e+00 -3.235937999999999981e+00 -1.907254999999999923e+00 1.064988000000000046e+00 -4.575745000000000395e+00 -6.108725999999999878e+00 3.551336000000000048e+00 1.028888000000000069e+01 6.041189999999999616e-01 2.712133999999999823e+00 -9.586500000000000021e-01 4.959979999999999944e-01 -2.965360000000000218e-01 -5.404919999999999725e-01 6.043523000000000422e+00 2.223465000000000025e+00 9.969571999999999434e+00 5.106501999999999875e+00 1.762008000000000019e+00 -1.034761100000000056e+01 4.502208999999999683e+00 8.245032999999999390e+00 4.831629999999999647e+00 -2.416542000000000190e+00 1.044990000000000085e+00 3.957542999999999811e+00