-5.826974254232111861e+01 1.608642416134785336e+01 1.045715365120381435e+01 1.608642416134785336e+01 -7.476849002021629076e+01 -3.720425002384614377e+00 1.045715365120381435e+01 -3.720425002384614377e+00 -1.549400013461122114e+02
-6.101010445377495017e+01 2.285094590785457402e+00 -1.650346093345052267e+01 2.285094590785457402e+00 -4.931879000235115029e+01 -1.568049457889588993e-01 -1.650346093345052267e+01 -1.562857241141610010e-01 -7.225644592989696946e+01
-1.173889404290417673e+02 1.420816044873452633e+01 -1.720247848128311574e+01 1.420816044873452633e+01 -1.006911106829320204e+02 -2.952324232989127495e+01 -1.720247848128311574e+01 -2.952324232989127495e+01 -1.082060896471461717e+02
-1.523186992546960141e+02 2.002614333494676302e+01 1.809333068327589444e+00 2.002614333494676302e+01 -1.165009458995375695e+02 1.221886604265109533e+01 1.809333068327589444e+00 1.221886604265109533e+01 -8.940176957159671645e+01
-3.605100162019680710e+01 -1.236574350993520000e+01 1.013460863588973382e+01 -1.236574350993520000e+01 -1.092752824776854794e+02 -7.572438211609951786e+00 1.013460863588973382e+01 -7.572997393282644651e+00 -5.532096124287370742e+01
-6.271390767937180044e+01 -2.433697909859845865e+01 -1.253595489377096861e+01 -2.433751243001278652e+01 -1.116241316931158707e+02 -3.484040797236681897e+01 -1.253648822518529471e+01 -3.484040797236681897e+01 -6.921255096295398346e+01
-9.648551350486987133e+01 7.284303936618754527e+00 3.579899583602812640e+01 7.284303936618754527e+00 -1.366432095049584632e+02 2.461268142896387801e+01 3.579899583602812640e+01 2.461268142896387801e+01 -1.210480830556882097e+02
-7.600819881504948228e+01 -3.669320962198647340e+00 -5.280268312283829424e+00 -3.669320962198647340e+00 -8.369105571154226197e+01 -1.031155268802873515e+01 -5.280268312283829424e+00 -1.031208470498715180e+01 -7.857890475811805686e+01
-8.379767014507348222e+01 -9.635637233894536635e+00 -9.599604762360582910e+00 -9.635637233894536635e+00 -4.111526740310227979e+01 -1.798630109831677260e+01 -9.599604762360582910e+00 -1.798685544403267400e+01 -9.854049445961871712e+00
-5.630280515082382209e+01 2.657464056835611571e-02 1.174390684567863019e+01 2.709571195204937138e-02 -1.289484931798029663e+02 2.620311667178282278e+01 1.174390684567863019e+01 2.620311667178282278e+01 -9.911403003506183040e+01
-1.017115652370069085e+02 -2.737153979507850110e+00 -1.007487992759848439e+01 -2.737153979507850110e+00 -8.761222006911462756e+01 -1.158424849874918339e+00 -1.007487992759848439e+01 -1.158424849874918339e+00 -7.769935398334405363e+01
-1.848193305989713764e+01 2.801275537505263813e+00 -2.012321655415032140e+01 2.801275537505263813e+00 -3.310556987784449490e+01 2.525528532422241312e+01 -2.012321655415032140e+01 2.525528532422241312e+01 -2.524447617815973999e+01
-1.283989778734594438e+02 7.905600841234855514e-01 1.762296608578584767e+01 7.910737683886730487e-01 -1.119020076969644890e+02 1.445096574825334379e+01 1.762296608578584767e+01 1.445096574825334379e+01 -1.051963732992075080e+02
-9.568209731722053846e+01 1.028100941944123520e-01 3.396804795314396053e+00 1.028100941944123520e-01 -1.154511551325639402e+02 -1.810373787373884547e+00 3.396804795314396053e+00 -1.810373787373884547e+00 -1.078956311309993197e+02
-1.556976943127656625e+02 -2.084392376960098403e+01 1.322253920792621962e+01 -2.084392376960098403e+01 -1.182770308756114730e+02 3.267416292283552082e+01 1.322253920792621962e+01 3.267416292283552082e+01 -1.242017875017876349e+02
-1.000788707489297735e+02 -1.679045967686242946e+01 2.083910149556826497e+01 -1.678992428386868241e+01 -7.457328391987300620e+01 -7.444104185041778621e+00 2.083963688856201202e+01 -7.444104185041778621e+00 -8.696549015311357778e+01
-8.150878223998363126e+01 -1.689621262708168459e+01 -1.373389631910881548e+01 -1.689621262708168459e+01 -3.349440314479129910e+01 -1.471953960090417368e+01 -1.373389631910881548e+01 -1.471953960090417368e+01 -9.447777278992258232e+01
-6.590951607020771519e+01 1.844296560356634629e+01 8.074010863365899127e+00 1.844348694474690831e+01 -6.666598212320337780e+01 6.923410877865249224e-01 8.074532204546459369e+00 6.923410877865249224e-01 -9.011695110724967606e+01
-1.477723600173390253e+02 -4.989220317201030497e+01 2.921509651703616939e+01 -4.989220317201030497e+01 -7.559117906223242755e+01 -2.360684621636785963e+01 2.921509651703616939e+01 -2.360684621636785963e+01 -5.623518948909170945e+01
-6.834199938182462120e+01 -1.943691517825751613e-01 -1.735939571986015650e+01 -1.943691517825751613e-01 -1.239480397525844495e+02 1.740347397012778785e+01 -1.735939571986015650e+01 1.740347397012778785e+01 -6.031019869450313564e+01
-6.795359837297472438e+01 6.681233142695051974e+00 3.483937234717788556e+01 6.681233142695051974e+00 -7.067165753411869389e+01 -1.010927266951796799e+00 3.483937234717788556e+01 -1.010927266951796799e+00 -1.449054031267892526e+02
-6.505677287086575689e+01 1.650410394029949046e+01 1.910078470237490578e+01 1.650410394029949046e+01 -4.947285191906871660e+01 -4.218921170632446760e+00 1.910078470237490578e+01 -4.218921170632446760e+00 -1.581646034549661692e+02
-1.422907280228385218e+02 4.964273615746663637e+01 3.432750663483333575e+00 4.964273615746663637e+01 -1.292919833229362894e+02 -2.117381138414885910e+01 3.432750663483333575e+00 -2.117329315488202823e+01 -1.634515836753166411e+02
-8.164607459406732914e+01 2.798283780774336194e+01 -5.537885187539298038e+00 2.798283780774336194e+01 -9.285483020521033382e+01 -7.129486266786346782e-01 -5.537885187539298038e+00 -7.129486266786346782e-01 -1.727784293607291204e+02
-4.106536471775378772e+01 1.668101121058906600e+01 9.159560903588205294e-01 1.668101121058906600e+01 -5.320503098625056992e+01 -1.833590350859551421e+01 9.159560903588205294e-01 -1.833590350859551421e+01 -4.263093505659404769e+01
-8.592871270020519603e+01 1.686899395426438275e+01 1.010766990725248338e+00 1.686899395426438275e+01 -1.067430255462510615e+02 5.077752279538465530e+00 1.010766990725248338e+00 5.077752279538465530e+00 -6.514819607555703840e+01
-1.206175222525078965e+02 -1.594771308531499798e+01 -8.740129391447489127e+00 -1.594771308531499798e+01 -7.486742627402311712e+01 1.520557277121429784e+01 -8.740129391447489127e+00 1.520557277121429784e+01 -8.951665329928221126e+01
-6.674718572118293025e+01 1.004606307821082289e+01 -3.768488365649969296e+01 1.004606307821082289e+01 -8.149725176080950462e+01 1.461871703525560129e+01 -3.768488365649969296e+01 1.461871703525560129e+01 -1.494815742426735028e+02
-8.996470057809160892e+01 -1.587682059457958239e+01 1.839640299328460316e+01 -1.587682059457958239e+01 -1.157153375366006856e+02 -5.933974575891051373e+00 1.839640299328460316e+01 -5.933974575891051373e+00 -1.964213068834665137e+02
-8.294630939097571343e+01 2.007845894237818385e+01 -1.033214000540276167e+01 2.007899054044390752e+01 -8.054082814357668951e+01 4.556858619382202491e+00 -1.033214000540276167e+01 4.556858619382202491e+00 -1.337521997283060671e+02
-1.263763626795350064e+02 -9.455006273351884261e+00 5.382215004929692626e+00 -9.454491967092453208e+00 -1.051550578029550707e+02 1.515197670905242866e+01 5.382215004929692626e+00 1.515197670905242866e+01 -1.566386572906260426e+02
-4.746761558665424729e+01 7.714097825380791917e+00 -3.769596002303897908e+00 7.714097825380791917e+00 -6.451288529818212680e+01 -1.326923545815257732e+01 -3.769596002303897908e+00 -1.326923545815257732e+01 -1.135836254016146398e+02
-5.985560227662328003e+01 5.334199265175978866e+00 -8.071589649111416964e-01 5.334199265175978866e+00 -1.391477819764003527e+02 -3.170613082127797000e+01 -8.071589649111416964e-01 -3.170613082127797000e+01 -1.087442677755987006e+02
-4.235909991556368936e+01 -1.169527231767635023e+01 6.296673497607850223e+00 -1.169527231767635023e+01 -9.050947258813307883e+01 -9.101487332873523073e+00 6.296673497607850223e+00 -9.101487332873523073e+00 -1.086729127350592421e+02
-9.072381164892043159e+01 -1.425282969068131322e+01 -1.134801149226505501e+01 -1.425282969068131322e+01 -9.121346547348761646e+01 -1.269196548098630473e+01 -1.134850559299620087e+01 -1.269196548098630473e+01 -1.297745688344333814e+02
-9.061179012645686726e+01 3.425906191892932107e+00 -1.564561162414514328e+01 3.425357608035143109e+00 -6.461165818654245641e+01 -3.796748879758363948e+00 -1.564561162414514328e+01 -3.797297463616153390e+00 -7.356180382637163007e+01
-1.430895675581237469e+02 1.959604164247954472e+01 -2.218252554781864916e+01 1.959655109371163917e+01 -1.155827671836950969e+02 5.631983370794524824e+00 -2.218252554781864916e+01 5.631983370794524824e+00 -7.588938388635592958e+01
-8.877038592289679286e+01 -6.248739826587590862e+00 1.921127031508567118e+00 -6.248739826587590862e+00 -1.017491627287860751e+02 1.355196719134730010e+01 1.921127031508567118e+00 1.355196719134730010e+01 -1.583102090288058719e+02
-1.233052987998117658e+02 2.692270527210124342e+01 4.156982175407897273e+00 2.692270527210124342e+01 -1.001687626276253127e+02 1.785768731922737729e+01 4.156982175407897273e+00 1.785768731922737729e+01 -7.931995458220988837e+01
-9.928909717413137059e+01 -1.853115103600214297e+01 -2.203202420262540817e-01 -1.853063506353838363e+01 -6.524420207020563112e+01 -2.387765770550107547e+01 -2.203202420262540817e-01 -2.387765770550107547e+01 -1.219954973868933621e+02
-8.184441731668768227e+01 -2.453887539534484574e+01 3.346014947629329495e+00 -2.453887539534484574e+01 -5.898150381516262541e+01 -1.494506788777383299e+01 3.346014947629329495e+00 -1.494506788777383299e+01 -6.363874407779648834e+01
-5.051156701516885050e+01 -2.356496038323619402e+01 4.725201345763673011e+00 -2.356496038323619402e+01 -1.087213995048048929e+02 -3.295967167177629875e+01 4.725201345763673011e+00 -3.295967167177629875e+01 -1.144859952082439349e+02
-1.808021099662459221e+02 3.266799616630220271e+01 5.578023916963096518e+00 3.266850744255490469e+01 -1.004402198430247921e+02 -1.298948447611039825e+01 5.577512640710396319e+00 -1.298948447611039825e+01 -8.107205283822220565e+01
-1.419532697808726240e+01 1.043780537677807096e+01 1.007618670959359974e+01 1.043780537677807096e+01 -1.325180590599831021e+01 -2.551205894747248237e+00 1.007618670959359974e+01 -2.551757984315468519e+00 -5.248825942986591286e+01
-4.966094329372596405e+01 -7.278553815562932350e+00 -2.394642012324177216e+01 -7.278553815562932350e+00 -3.816196862307088367e+01 1.596884882388532212e+01 -2.394642012324177216e+01 1.596884882388532212e+01 -4.065321211041028704e+01
-4.053436884350851699e+01 -8.505714957290934075e-01 5.800314654675966963e+00 -8.505714957290934075e-01 -4.940045054042298744e+01 7.332933200251380512e+00 5.800314654675966963e+00 7.332933200251380512e+00 -7.798760206323575517e+01
-6.826272608199268177e+01 5.192469503825454247e+00 3.300729281297480000e+00 5.192469503825454247e+00 -7.880371603934653990e+01 3.699917678440822755e-01 3.301232671457811740e+00 3.699917678440822755e-01 -7.385337720264082861e+01
-1.063459782186459250e+02 2.471733859649709597e+00 -2.426179021482630371e-01 2.472245711763946474e+00 -9.889597069592869616e+01 -2.140258430469930673e+01 -2.426179021482630371e-01 -2.140258430469930673e+01 -1.756568967116851638e+02
-8.759724086253855546e+01 1.526307135760240818e+01 5.875233594615425936e+00 1.526307135760240818e+01 -1.031651187122301963e+02 -5.928309351944396788e+00 5.875233594615425936e+00 -5.928309351944396788e+00 -7.702050613538264656e+01
-7.578302958317325988e+01 -1.133266208635983219e+01 -1.684136459393152307e+01 -1.133266208635983219e+01 -6.859589428032582248e+01 4.139252752983249195e+01 -1.684136459393152307e+01 4.139200901491273044e+01 -1.723211743746559819e+02
-5.493184625994710757e+01 1.149177284179229908e+01 1.355701448103403450e+01 1.149177284179229908e+01 -5.455634778008497676e+01 -1.401119400075167398e+01 1.355701448103403450e+01 -1.401119400075167398e+01 -1.498792415068208186e+02
-5.198869300217568679e+01 1.595842531196677072e+00 1.733350335971617584e+00 1.595842531196677072e+00 -2.947071569055431439e+01 -3.395529640174954977e+01 1.733350335971617584e+00 -3.395583354161195189e+01 -1.674189751526649275e+02
-3.580902826245453952e+01 8.950350649640306244e+00 9.539705530537993639e+00 8.950350649640306244e+00 -4.446197802025553614e+01 -5.442000568436970553e+00 9.539705530537993639e+00 -5.442000568436970553e+00 -4.847253253786151816e+01
-7.996256092320005848e+01 -3.109380110615175141e+01 2.567494036018390879e+00 -3.109380110615175141e+01 -9.311076371483065373e+01 -4.297590017212322144e-01 2.568020701461676936e+00 -4.297590017212322144e-01 -7.766893291769028451e+01
-8.476182460728169588e+01 -9.572712087481338727e+00 4.732202752400858969e+00 -9.572712087481338727e+00 -1.424032834562370624e+02 -2.507794208219823062e+01 4.732202752400858969e+00 -2.507794208219823062e+01 -1.709808198888722188e+02
-1.054075941345067093e+02 2.485267038573964626e+01 2.174667673156220715e+01 2.485267038573964626e+01 -1.058015480669990751e+02 -3.777026770614487816e+01 2.174667673156220715e+01 -3.777026770614487816e+01 -6.722186502418880139e+01
-1.144438529183368018e+02 5.887247964922909027e+00 -1.450342428343148349e+01 5.887763440622491018e+00 -6.958354921083780198e+01 -2.475778237521078751e+01 -1.450342428343148349e+01 -2.475778237521078751e+01 -1.329494305333207933e+02
-4.435431009920982603e+01 -5.579891783392966431e+00 6.726641797840867021e+00 -5.580424165015272386e+00 -4.397206009439386065e+01 -4.236959141125171868e+01 6.726641797840867021e+00 -4.236959141125171868e+01 -9.689611716786917839e+01
-5.694159510710127137e+01 -5.298541947788761419e+00 -2.486975624541007512e+00 -5.298541947788761419e+00 -9.496633419914155638e+01 -2.715949254585655481e+01 -2.486975624541007512e+00 -2.715949254585655481e+01 -1.092483249422384119e+02
-9.343265995277097602e+01 -1.574499346478076411e+01 2.698971244968704042e+01 -1.574499346478076411e+01 -8.774341792799263828e+01 1.698219599582250439e+01 2.698971244968704042e+01 1.698219599582250439e+01 -1.278500629997933942e+02
-3.407964420689553009e+01 -4.801444385030039008e+00 -1.994854241736237155e+00 -4.801444385030039008e+00 -7.034620043092849073e+01 1.188317694319368201e+01 -1.995384788077124494e+00 1.188317694319368201e+01 -7.602145463939991998e+01
-9.292159398993284469e+01 1.963159363160073667e+01 2.751553182149828913e+00 1.963263352320396748e+01 -1.403952454064464632e+02 -2.409064882625624193e+01 2.751553182149828913e+00 -2.409064882625624193e+01 -1.329231042914284728e+02
-1.058481167462121704e+02 -1.822901068809098035e+01 1.799880507882211234e+01 -1.822901068809098035e+01 -9.327762329329195268e+01 1.990961723465705191e+01 1.799880507882211234e+01 1.990961723465705191e+01 -8.136870696976141915e+01
-1.699140690969513230e+02 1.044563938839176132e+01 -3.249848941876285124e+01 1.044617075676028328e+01 -8.029773100909660855e+01 -6.774946698646605592e-01 -3.249848941876285124e+01 -6.774946698646605592e-01 -1.069506370057566187e+02
-9.616746754489463456e+01 -2.736944261201647421e+01 -1.442324803972001357e+00 -2.736944261201647421e+01 -7.914879454753803145e+01 -2.182750761466280665e+01 -1.442324803972001357e+00 -2.182805025002923927e+01 -4.502842534176095768e+01
-6.287173690002325799e+01 6.556319746606853904e+00 -7.824372173078874226e+00 6.556319746606853904e+00 -1.178882362535038340e+02 -8.428819070078722220e+00 -7.823857750187810822e+00 -8.428819070078722220e+00 -5.748727249925951810e+01
-1.097988330550540610e+02 -2.750811162161345358e+00 -2.858252528718242758e+01 -2.750811162161345358e+00 -1.045068904920990889e+02 5.944915517090133328e+00 -2.858252528718242758e+01 5.944915517090133328e+00 -1.049189658543899384e+02
-5.302739838302984765e+01 2.078253142834676126e+01 -1.701301318765638504e+00 2.078253142834676126e+01 -7.390651494809054611e+01 -2.048630103697272276e+01 -1.701301318765638504e+00 -2.048630103697272276e+01 -7.688500631491146464e+01
-8.784142788423457660e+01 -1.584986978097990651e+01 1.955587493250514441e+01 -1.584986978097990651e+01 -6.552539231906384032e+01 -1.079483875197147036e+01 1.955587493250514441e+01 -1.079483875197147036e+01 -1.323634926125494928e+02
-4.882830603513136225e+01 9.969875817347555014e+00 -2.257352740052740359e+01 9.969875817347555014e+00 -7.759293072481854381e+01 -2.341463295913300868e+01 -2.257406622535674501e+01 -2.341463295913300868e+01 -7.607344470606913944e+01
-9.279904162924113109e+01 1.657826105202585154e+01 -1.018648770840865048e+01 1.657826105202585154e+01 -1.447735892297972100e+02 3.224942520435114801e+01 -1.018648770840865048e+01 3.224942520435114801e+01 -1.296286131488884621e+02
-5.723406553386741535e+01 -2.987018534089570210e+01 2.378706819036764841e+01 -2.986967799167547710e+01 -1.675977414099615714e+02 2.903813261972256043e+01 2.378706819036764841e+01 2.903813261972256043e+01 -1.076052181657170763e+02
-4.819370796212930230e+01 -9.788189729228995439e-01 -2.774462655096365538e+01 -9.788189729228995439e-01 -7.229000925038033643e+01 4.444202914326953469e+00 -2.774517924377727951e+01 4.444202914326953469e+00 -7.774785078488831402e+01
-7.565775539993190080e+01 3.723701605306777651e+01 2.684997927823465602e+01 3.723755656598731889e+01 -5.482638748079424573e+01 -2.177510347665750245e+01 2.684997927823465602e+01 -2.177456296373796008e+01 -8.855006955684088155e+01
-9.988846618120619780e+01 -2.240081523788831674e+01 6.673350755248532273e+00 -2.240081523788831674e+01 -7.151461552987497328e+01 9.118012993310234293e+00 6.673350755248532273e+00 9.118528309970869827e+00 -1.159843820762013991e+02
-9.163394461181852080e+01 -1.244184753537724702e-01 7.748593654943806142e-01 -1.244184753537724702e-01 -1.283137710800382649e+02 -1.821129497899732996e+00 7.753843379642276767e-01 -1.821129497899732996e+00 -6.376368116010362286e+01
-1.292755008255863061e+02 1.881935555483003242e+01 -2.278244895262676817e+00 1.881985212084905257e+01 -1.184801555720966491e+02 -1.250651175503177370e+01 -2.278244895262676817e+00 -1.250651175503177370e+01 -1.737196492259122351e+02
-7.819108351890643860e+01 -6.132739023128942257e+00 1.833876431553815323e+01 -6.132739023128942257e+00 -1.042544209516118912e+02 2.233013297932478025e+01 1.833876431553815323e+01 2.233013297932478025e+01 -7.752746223946043358e+01
-7.533635618872253303e+01 -8.104203285792696221e+00 -3.156419701648513154e+01 -8.103659525507818984e+00 -9.301128424861863664e+01 -6.403647370871327382e+01 -3.156474077677000878e+01 -6.403647370871327382e+01 -1.838284957477623891e+02
-4.511726183557523484e+01 1.012143645083829924e+01 3.226268300803249112e+00 1.012143645083829924e+01 -8.724622354504850819e+01 -1.881291515663193081e+01 3.226268300803249112e+00 -1.881291515663193081e+01 -5.163801956175750263e+01
-9.583884257471103751e+01 -1.429417615616615933e+01 -6.945655452521431350e+00 -1.429417615616615933e+01 -5.279312136411315493e+01 -3.901545292964116562e+00 -6.945655452521431350e+00 -3.901545292964116562e+00 -5.065061071041198915e+01
-7.712007081422018473e+01 -6.577471649590098668e-01 1.052134038193176124e+01 -6.577471649590098668e-01 -7.348520730802381706e+01 -1.979515712666781724e+01 1.052134038193176124e+01 -1.979515712666781724e+01 -1.117621186373713442e+02
-9.326910387591348695e+01 5.621270978582971090e+00 -2.850199145381474963e+01 5.621270978582971090e+00 -1.114876723080771797e+02 -1.897387459388168995e-01 -2.850199145381474963e+01 -1.897387459388168995e-01 -9.831177593144126092e+01
-6.945118100780335624e+01 1.164396784211564295e+01 -1.096053989727831635e+00 1.164448169771326569e+01 -6.572624178064111788e+01 -1.252523019203745847e+01 -1.096053989727831635e+00 -1.252523019203745847e+01 -1.570517417236175106e+02
-1.485834851140266437e+02 1.854837596701548108e+01 1.935909834336186686e+00 1.854837596701548108e+01 -1.101443065593246899e+02 9.488642028718667021e+00 1.935909834336186686e+00 9.489148413713261121e+00 -1.233989337928454120e+02
-7.575411961001293548e+01 1.159091614353521393e+01 -2.868083886740682686e+01 1.159091614353521393e+01 -6.289699508400426708e+01 1.536464247802698635e+00 -2.868083886740682686e+01 1.536464247802698635e+00 -5.817400150660940739e+01
-1.470736318084767618e+02 -2.508473032587727758e+01 -1.725058523714586345e+00 -2.508473032587727758e+01 -1.405813641403474890e+02 -2.629821977014546874e+01 -1.725554230186918003e+00 -2.629821977014546874e+01 -1.360476327444010280e+02
-3.344779897610694519e+01 1.030677258645961558e+01 9.299695303030091509e+00 1.030622880822882337e+01 -5.242402789610701319e+01 -1.827529878050726708e+01 9.299695303030091509e+00 -1.827529878050726708e+01 -1.151048007814406304e+02
-1.253085973199656991e+02 -2.882555733351088634e+01 -4.615241537500504876e+01 -2.882555733351088634e+01 -6.673990056608849386e+01 -1.849280821200972724e+01 -4.615294607603851063e+01 -1.849280821200972724e+01 -1.204367618327864164e+02
-9.795223592657174549e+01 4.218301778052277484e+01 -2.737978126845979432e+01 4.218352235603958178e+01 -1.257962266704933398e+02 2.348092625009758194e+01 -2.737978126845979432e+01 2.348092625009758194e+01 -9.358311652654607826e+01
-1.245376175599605517e+02 -1.787258598916463370e+01 -2.081931131083509356e+01 -1.787206783806182386e+01 -1.031877195198498072e+02 -3.259066806443269115e+01 -2.081931131083509356e+01 -3.259066806443269115e+01 -2.535080178044455863e+02
-8.715073389554412131e+01 -5.546356591714775019e-01 -1.573608591001627666e+01 -5.546356591714775019e-01 -7.340132134762392013e+01 1.468668693957210714e+01 -1.573608591001627666e+01 1.468668693957210714e+01 -5.028624070611821395e+01
-8.367683514778744325e+01 -1.250417914839923306e+01 -4.786291166889562021e+00 -1.250417914839923306e+01 -1.044569288081145970e+02 -7.062767966846523748e+00 -4.786291166889562021e+00 -7.062767966846523748e+00 -4.938352091408586375e+01
-9.730500075613869626e+01 -6.111567659800323238e-01 -1.867212889412379795e+01 -6.111567659800323238e-01 -7.463640143365968527e+01 3.028937150257628108e+00 -1.867212889412379795e+01 3.028937150257628108e+00 -6.852641299030891275e+01
-8.181846544762815654e+01 2.084446610564039304e+01 3.293730527183075796e-01 2.084446610564039304e+01 -1.127785327884215576e+02 3.401688917755389507e+00 3.293730527183075796e-01 3.401688917755389507e+00 -2.107217834056976926e+02
-8.066925503059552227e+01 -4.412927121739044445e+00 -1.204597313597432340e+01 -4.412927121739044445e+00 -1.335579703656236177e+02 -8.745029516680022041e+00 -1.204545832879726497e+01 -8.745029516680022041e+00 -1.387158234725652335e+02
-8.528499983368980963e+01 -1.199410234819803556e+01 3.784418494769266950e+00 -1.199410234819803556e+01 -6.843062361647312741e+01 3.717015507466896462e+00 3.784418494769266950e+00 3.717015507466896462e+00 -4.968688981671922278e+01
-8.023309054792143513e+01 6.542630456375465364e+00 1.446697008923296757e+01 6.542630456375465364e+00 -8.897330152299329598e+01 1.746424024086117299e+01 1.446697008923296757e+01 1.746424024086117299e+01 -1.105168984749262933e+02
-9.867463718456453137e+01 2.456531098801425372e+01 -3.091582901018080420e+00 2.456586513443852482e+01 -7.243358740954926134e+01 3.270239708203638429e+01 -3.091582901018080420e+00 3.270239708203638429e+01 -7.081104667927844787e+01
-8.072747806858990316e+01 1.200128355844830708e+01 -1.885242443659169709e+01 1.200180742607930107e+01 -7.041881082588415097e+01 -3.198683368088066814e+01 -1.885242443659169709e+01 -3.198735754851166391e+01 -1.922526102957033913e+02
-5.401618122936407929e+01 2.235754198493166101e+01 -6.226787999539134866e+00 2.235807739232628677e+01 -1.435919799804298975e+02 1.237540651946238590e+01 -6.226787999539134866e+00 1.237540651946238590e+01 -9.023863310561692685e+01
-8.398046096737715516e+01 1.800462858800303678e+01 -2.385715252871809522e+00 1.800515827611424058e+01 -6.913383289838428425e+01 -4.641127230386943303e+00 -2.385715252871809522e+00 -4.641127230386943303e+00 -7.223621616571780635e+01
-4.173040347713082809e+01 -2.754630333451729474e+00 9.180067628271888935e+00 -2.754630333451729474e+00 -5.406884029183468954e+01 1.007905207975674067e+01 9.180067628271888935e+00 1.007960666609325173e+01 -5.409878795400629770e+01
-3.914274942501157994e+01 -1.230065614787199735e+01 -1.299059239214370054e+00 -1.230010639787656324e+01 -6.209591123443958338e+01 6.824596443337786589e+00 -1.299059239214370054e+00 6.824596443337786589e+00 -4.688707761071316327e+01
-1.292961955858702936e+02 1.177539341697140918e+00 -2.728139381938684593e+01 1.178034314098022506e+00 -1.516615235197018592e+02 -4.586414266568183074e+00 -2.728139381938684593e+01 -4.586414266568183074e+00 -1.285878900802088367e+02
-7.568031935252115261e+01 -3.056584642146472675e+01 -1.704784033719904102e+01 -3.056584642146472675e+01 -7.478809187530369229e+01 3.986259622969787308e+00 -1.704784033719904102e+01 3.986259622969787308e+00 -1.078374133185124180e+02
-1.898946702016066013e+02 -5.689517121459135574e+00 -2.040545447130438816e+01 -5.689517121459135574e+00 -1.368756304850190304e+02 6.679593055124054324e+00 -2.040545447130438816e+01 6.679593055124054324e+00 -4.349547721545260259e+01
-6.436198360230544324e+01 -1.030375681845760205e+01 -2.064528625182483879e+01 -1.030375681845760205e+01 -9.281599232558396295e+01 1.934570412263663386e-01 -2.064579669256685790e+01 1.934570412263663386e-01 -1.550943568189553048e+02
-4.145235657032674936e+01 1.945426938106574255e+01 3.394620628148555141e+01 1.945426938106574255e+01 -6.485723136657206567e+01 -3.345976747066912171e+00 3.394675345675081246e+01 -3.345976747066912171e+00 -7.269059246403892871e+01
-4.661629301089473643e+01 9.077066471602449838e+00 1.842542492223496353e+01 9.077066471602449838e+00 -1.300225553827762610e+02 -1.524201648326207525e+01 1.842542492223496353e+01 -1.524148244393327545e+01 -4.334530212199874910e+01
-6.344745040040969997e+01 -1.680765799684839834e+01 -4.530483263145440809e+00 -1.680765799684839834e+01 -5.063406417302375928e+01 1.485852126165061193e+01 -4.530483263145440809e+00 1.485852126165061193e+01 -5.551990025591953781e+01
-8.283927172635192449e+01 1.607451950240563221e+01 1.957143251696405173e+01 1.607503695032136903e+01 -4.218804601804711751e+01 -7.263416393216412636e+00 1.957194996487978855e+01 -7.263933841132150349e+00 -1.262174479505967781e+02
-7.572653317120978045e+01 -1.350470061888620066e+00 7.839441983193380814e+00 -1.350470061888620066e+00 -8.669188837457892305e+01 8.695684073714836870e+00 7.838917325049679086e+00 8.695684073714836870e+00 -4.743749072094851726e+01
-7.813789966090594419e+01 2.670064413897775779e+01 9.745024855932395980e+00 2.670064413897775779e+01 -7.105783854737423155e+01 1.105200336964732699e+01 9.745024855932395980e+00 1.105145491034656757e+01 -1.369097014119192011e+02
-8.352211684304923267e+01 -2.095425695293803514e+01 -4.026689656460815669e+00 -2.095371977448866474e+01 -2.870735351266308300e+01 -6.069579299406450801e+00 -4.026152478011447933e+00 -6.069579299406450801e+00 -1.190210174910690313e+02
-1.840320397022744032e+02 4.308959903269988789e-01 -1.042758049362078587e+01 4.308959903269988789e-01 -8.206442315658155451e+01 9.900360548262305826e+00 -1.042758049362078587e+01 9.899848186799372840e+00 -1.076527793384019844e+02
-7.724189343917377926e+01 -6.024317042257222532e+00 1.495279728933477159e+01 -6.023796582901518981e+00 -2.081061938370274333e+02 -4.862651760329090855e+00 1.495279728933477159e+01 -4.862651760329090855e+00 -1.059993546791634742e+02
-1.327082244180041641e+02 1.421399693817164156e+01 9.978887693184507413e+00 1.421399693817164156e+01 -1.418500471860816958e+02 4.819883289751349054e+01 9.978887693184507413e+00 4.819883289751349054e+01 -1.649857407808304970e+02
-9.504893099265667900e+01 -1.095147838890260061e+01 -1.242933409624467522e+01 -1.095147838890260061e+01 -1.203669327158064135e+02 8.136615242201269638e+00 -1.242985964948341504e+01 8.136089688962529820e+00 -1.292267092145164611e+02
-1.023217834854494157e+02 9.611304186129476790e+00 -1.956844931930503151e+01 9.611304186129476790e+00 -7.714456254049486006e+01 8.238187537116896664e+00 -1.956844931930503151e+01 8.238187537116896664e+00 -1.216524991759701777e+02
-6.621929322322350231e+01 -2.197827750353468446e+01 -4.780520309299104653e+00 -2.197775072443723943e+01 -9.651910012907201519e+01 -5.511162917453138910e+00 -4.780520309299104653e+00 -5.511689696550582163e+00 -7.238155510511671764e+01
-7.018800367767011039e+01 1.781792622503520818e+01 -1.064865977120004992e+01 1.781846591687906667e+01 -1.142538427288324527e+02 -2.018987187879954703e+01 -1.064865977120004992e+01 -2.018987187879954703e+01 -5.606642689123148671e+01
-7.443420294696274198e+01 -3.406253610096383166e+00 -7.426167912250521752e+00 -3.406253610096383166e+00 -3.294386104933897030e+01 2.410638273764957518e+01 -7.426713873720323988e+00 2.410638273764957518e+01 -1.155822270030204777e+02
-1.118650003910977375e+02 1.827951080626536040e+01 -2.589414495965561258e+01 1.828000953787089955e+01 -1.222156761324824146e+02 2.294215258646221045e+01 -2.589414495965561258e+01 2.294265131806774960e+01 -1.196696512861988566e+02
-4.999033224741095438e+01 -7.670601694924068958e+00 9.715222829304853036e+00 -7.670601694924068958e+00 -8.663748267956968618e+01 1.138704748540673428e+01 9.715222829304853036e+00 1.138652389484735394e+01 -1.333815534588216565e+02
-1.020988356878649768e+02 -2.788845240960380423e+01 -1.820969842896865032e+01 -2.788845240960380423e+01 -9.175837807760069609e+01 1.151021685843552333e+01 -1.820969842896865032e+01 1.151021685843552333e+01 -6.103680624405081545e+01
-1.521687778269195235e+02 2.475649046083182370e+01 4.665023408051465026e+01 2.475699813007125272e+01 -1.410020852364046675e+02 -1.875330170456531320e+01 4.665023408051465026e+01 -1.875330170456531320e+01 -1.041386987536325819e+02
-1.169967713303518337e+02 -2.693135306147165764e+01 -1.117786701458822129e+01 -2.693135306147165764e+01 -8.232367363933445858e+01 1.402605761886735714e+01 -1.117786701458822129e+01 1.402605761886735714e+01 -3.987466845990788755e+01
-1.009761765483313951e+02 -1.337372125154198876e+01 1.918193734739295309e+01 -1.337320652129598919e+01 -7.740153128158431173e+01 -1.517990968475193547e+01 1.918193734739295309e+01 -1.517990968475193547e+01 -1.048279029791407595e+02