-1.288265129999999954e+04
-1.288274409999999989e+04
-1.288318120000000090e+04
-1.288367059999999947e+04
-1.288387709999999970e+04
-1.288417180000000008e+04
-1.288488600000000042e+04
-1.288535620000000017e+04
-1.288540829999999914e+04
-1.288527670000000035e+04
-1.288516920000000027e+04
-1.288516309999999976e+04
-1.288518499999999949e+04
-1.288500510000000031e+04
-1.288456070000000000e+04
-1.288443959999999970e+04
-1.288472179999999935e+04
-1.288486449999999968e+04
-1.288487730000000010e+04
-1.288497979999999916e+04
-1.288527100000000064e+04
-1.288569729999999981e+04
-1.288606569999999920e+04
-1.288614630000000034e+04
-1.288606389999999919e+04
-1.288621600000000035e+04
-1.288635759999999937e+04
-1.288622830000000067e+04
-1.288598110000000088e+04
-1.288580930000000080e+04
-1.288577959999999985e+04
-1.288582710000000043e+04
-1.288580559999999969e+04
-1.288569449999999961e+04
-1.288575629999999910e+04
-1.288602640000000065e+04
-1.288622559999999976e+04
-1.288631129999999939e+04
-1.288640439999999944e+04
-1.288657270000000062e+04
-1.288677850000000035e+04
-1.288690359999999964e+04
-1.288686800000000039e+04
-1.288680689999999959e+04
-1.288687500000000000e+04
-1.288693209999999999e+04
-1.288687730000000010e+04
-1.288679960000000028e+04
-1.288679980000000069e+04
-1.288689099999999962e+04
-1.288699599999999919e+04
-1.288702160000000003e+04
-1.288700389999999970e+04
-1.288708359999999993e+04
-1.288720850000000064e+04
-1.288723639999999978e+04
-1.288718560000000070e+04
-1.288714769999999953e+04
-1.288716220000000067e+04
-1.288718750000000000e+04
-1.288714379999999983e+04
-1.288703240000000005e+04
-1.288698730000000069e+04
-1.288703640000000087e+04
-1.288705229999999938e+04
-1.288701349999999911e+04
-1.288700020000000040e+04
-1.288706370000000061e+04
-1.288717339999999967e+04
-1.288724129999999968e+04
-1.288722669999999925e+04
-1.288722890000000007e+04
-1.288730969999999979e+04
-1.288734799999999996e+04
-1.288728709999999955e+04
-1.288720310000000063e+04
-1.288717159999999967e+04
-1.288719119999999930e+04
-1.288719080000000031e+04
-1.288711620000000039e+04
-1.288705539999999928e+04
-1.288711679999999978e+04
-1.288719340000000011e+04
-1.288718260000000009e+04
-1.288714179999999942e+04
-1.288715099999999984e+04
-1.288721310000000085e+04
-1.288724560000000019e+04
-1.288715840000000026e+04
-1.288701809999999932e+04
-1.288699040000000059e+04
-1.288698999999999978e+04
-1.288687809999999990e+04
-1.288672350000000006e+04
-1.288664660000000003e+04
-1.288667970000000059e+04
-1.288674320000000080e+04
-1.288671379999999954e+04
-1.288662930000000051e+04
-1.288670470000000023e+04
-1.288685250000000087e+04
-1.288684809999999925e+04
-1.288674070000000029e+04
-1.288667070000000058e+04
-1.288668469999999979e+04
-1.288669919999999911e+04
-1.288655630000000019e+04
-1.288626610000000073e+04
-1.288614259999999922e+04
-1.288615689999999995e+04
-1.288601050000000032e+04
-1.288576900000000023e+04
-1.288562830000000031e+04
-1.288566480000000047e+04
-1.288579049999999916e+04
-1.288579310000000078e+04
-1.288560850000000028e+04
-1.288561299999999937e+04
-1.288580669999999918e+04
-1.288575220000000081e+04
-1.288550129999999990e+04
-1.288529429999999957e+04
-1.288523840000000018e+04
-1.288526519999999982e+04
-1.288515689999999995e+04
-1.288481710000000021e+04
-1.288470540000000074e+04
-1.288492300000000068e+04
-1.288494019999999909e+04
-1.288478679999999986e+04
-1.288471960000000036e+04
-1.288484660000000076e+04
-1.288509139999999934e+04
-1.288521210000000065e+04
-1.288502050000000054e+04
-1.288491519999999946e+04
-1.288517089999999916e+04
-1.288522010000000046e+04
-1.288501540000000023e+04
-1.288484410000000025e+04
-1.288485519999999997e+04
-1.288500449999999910e+04
-1.288507519999999931e+04
-1.288485150000000067e+04
-1.288464300000000003e+04
-1.288483929999999964e+04
-1.288494379999999910e+04
-1.288481279999999970e+04
-1.288470809999999983e+04
-1.288478650000000016e+04
-1.288501759999999922e+04
-1.288520960000000014e+04
-1.288514010000000053e+04
-1.288497839999999997e+04
-1.288512930000000051e+04
-1.288526970000000074e+04
-1.288516990000000078e+04
-1.288503169999999955e+04
-1.288503410000000076e+04
-1.288519640000000072e+04
-1.288538819999999942e+04
-1.288540879999999925e+04
-1.288530409999999938e+04
-1.288543740000000071e+04
-1.288566589999999997e+04
-1.288569290000000001e+04
-1.288562260000000060e+04
-1.288563030000000072e+04
-1.288576699999999983e+04
-1.288594059999999990e+04
-1.288597680000000037e+04
-1.288587099999999919e+04
-1.288592649999999958e+04
-1.288610870000000068e+04
-1.288613839999999982e+04
-1.288605769999999939e+04
-1.288602549999999974e+04
-1.288610469999999987e+04
-1.288622650000000067e+04
-1.288624190000000090e+04
-1.288612730000000010e+04
-1.288612479999999960e+04
-1.288625679999999920e+04
-1.288628880000000026e+04
-1.288622030000000086e+04
-1.288618590000000040e+04
-1.288625499999999920e+04
-1.288637880000000041e+04
-1.288642790000000059e+04
-1.288635699999999997e+04
-1.288635579999999936e+04
-1.288648339999999916e+04
-1.288653759999999966e+04
-1.288648320000000058e+04
-1.288643720000000030e+04
-1.288647839999999997e+04
-1.288657860000000073e+04
-1.288662650000000031e+04
-1.288655940000000010e+04
-1.288652989999999954e+04
-1.288663730000000032e+04
-1.288670709999999963e+04
-1.288667029999999977e+04
-1.288662700000000041e+04
-1.288666339999999946e+04
-1.288676759999999922e+04
-1.288683740000000034e+04
-1.288678989999999976e+04
-1.288674259999999958e+04
-1.288682810000000063e+04
-1.288689500000000044e+04
-1.288684009999999944e+04
-1.288675170000000071e+04
-1.288673070000000007e+04
-1.288678640000000087e+04
-1.288683070000000043e+04
-1.288676959999999963e+04
-1.288669180000000051e+04
-1.288676159999999982e+04
-1.288685720000000038e+04
-1.288683940000000075e+04
-1.288677360000000044e+04
-1.288676519999999982e+04
-1.288683549999999923e+04
-1.288690240000000085e+04
-1.288685479999999916e+04
-1.288674769999999990e+04
-1.288677709999999934e+04
-1.288686429999999928e+04
-1.288683770000000004e+04
-1.288674530000000050e+04
-1.288670679999999993e+04
-1.288676349999999911e+04
-1.288684610000000066e+04
-1.288682799999999952e+04
-1.288672229999999945e+04
-1.288674049999999988e+04
-1.288685579999999936e+04
-1.288685829999999987e+04
-1.288676280000000042e+04
-1.288669640000000072e+04
-1.288671800000000076e+04
-1.288677210000000014e+04
-1.288672899999999936e+04
-1.288655999999999949e+04
-1.288647810000000027e+04
-1.288653839999999946e+04
-1.288651840000000084e+04
-1.288639600000000064e+04
-1.288630639999999948e+04
-1.288633170000000064e+04
-1.288643570000000000e+04
-1.288648730000000069e+04
-1.288640190000000075e+04
-1.288634510000000046e+04
-1.288644820000000072e+04
-1.288649239999999918e+04
-1.288638500000000022e+04
-1.288625400000000081e+04
-1.288621149999999943e+04
-1.288625859999999921e+04
-1.288629169999999976e+04
-1.288620180000000073e+04
-1.288609339999999975e+04
-1.288617599999999948e+04
-1.288629800000000068e+04
-1.288628000000000065e+04
-1.288620770000000084e+04
-1.288620449999999983e+04
-1.288629320000000007e+04
-1.288638589999999931e+04
-1.288634850000000006e+04
-1.288619549999999981e+04
-1.288616179999999986e+04
-1.288622839999999997e+04
-1.288616289999999935e+04
-1.288599530000000050e+04
-1.288587509999999929e+04
-1.288587099999999919e+04
-1.288593389999999999e+04
-1.288593389999999999e+04
-1.288581099999999969e+04
-1.288576219999999921e+04
-1.288589530000000013e+04
-1.288595759999999973e+04
-1.288587670000000071e+04
-1.288578980000000047e+04
-1.288579490000000078e+04
-1.288587550000000010e+04
-1.288591640000000007e+04
-1.288580969999999979e+04
-1.288568239999999969e+04
-1.288575629999999910e+04
-1.288585440000000017e+04
-1.288580370000000039e+04
-1.288571199999999953e+04
-1.288571060000000034e+04
-1.288582079999999951e+04
-1.288594779999999992e+04
-1.288594499999999971e+04
-1.288582610000000022e+04
-1.288585729999999967e+04
-1.288599949999999990e+04
-1.288598430000000008e+04
-1.288584890000000087e+04
-1.288575269999999909e+04
-1.288576879999999983e+04
-1.288585020000000077e+04
-1.288586030000000028e+04
-1.288572270000000026e+04
-1.288564120000000003e+04
-1.288576720000000023e+04
-1.288584230000000025e+04
-1.288576779999999962e+04
-1.288568549999999959e+04
-1.288570709999999963e+04
-1.288582790000000023e+04
-1.288593590000000040e+04
-1.288589450000000033e+04
-1.288576620000000003e+04
-1.288581739999999991e+04
-1.288594720000000052e+04
-1.288591680000000088e+04
-1.288579830000000038e+04
-1.288574409999999989e+04
-1.288580760000000009e+04
-1.288592699999999968e+04
-1.288596789999999964e+04
-1.288587390000000050e+04
-1.288584970000000067e+04
-1.288600610000000052e+04
-1.288608050000000003e+04
-1.288599820000000000e+04
-1.288589760000000024e+04
-1.288587860000000001e+04
-1.288593300000000090e+04
-1.288596069999999963e+04
-1.288585430000000088e+04
-1.288569269999999960e+04
-1.288571219999999994e+04
-1.288580800000000090e+04
-1.288577399999999943e+04
-1.288567840000000069e+04
-1.288565190000000075e+04
-1.288573480000000018e+04
-1.288586260000000038e+04
-1.288591009999999915e+04
-1.288583539999999994e+04
-1.288582940000000053e+04
-1.288598060000000078e+04
-1.288605849999999919e+04
-1.288600560000000041e+04
-1.288595279999999912e+04
-1.288599179999999978e+04
-1.288610829999999987e+04
-1.288620110000000022e+04
-1.288616929999999957e+04
-1.288609820000000036e+04
-1.288618839999999909e+04
-1.288631519999999909e+04
-1.288630199999999968e+04
-1.288622650000000067e+04
-1.288621169999999984e+04
-1.288628869999999915e+04
-1.288638880000000063e+04
-1.288639810000000034e+04
-1.288629809999999998e+04
-1.288627720000000045e+04
-1.288637800000000061e+04
-1.288638550000000032e+04
-1.288627870000000075e+04
-1.288618579999999929e+04
-1.288618399999999929e+04
-1.288624929999999949e+04
-1.288628160000000025e+04
-1.288620529999999962e+04
-1.288613630000000012e+04
-1.288623190000000068e+04
-1.288633259999999973e+04
-1.288630889999999999e+04
-1.288625360000000001e+04
-1.288627150000000074e+04
-1.288637269999999990e+04
-1.288647550000000047e+04
-1.288647409999999945e+04
-1.288640320000000065e+04
-1.288645889999999963e+04
-1.288658749999999964e+04
-1.288659319999999934e+04
-1.288651330000000053e+04
-1.288646980000000076e+04
-1.288650929999999971e+04
-1.288657829999999922e+04
-1.288656530000000021e+04
-1.288644809999999961e+04
-1.288641820000000007e+04
-1.288652820000000065e+04
-1.288656420000000071e+04
-1.288649569999999949e+04
-1.288644319999999971e+04
-1.288647780000000057e+04
-1.288656489999999940e+04
-1.288658879999999954e+04
-1.288648010000000068e+04
-1.288639650000000074e+04
-1.288646769999999924e+04
-1.288650000000000000e+04
-1.288641250000000036e+04
-1.288632179999999971e+04
-1.288632539999999972e+04
-1.288641339999999946e+04
-1.288647739999999976e+04
-1.288641580000000067e+04
-1.288634360000000015e+04
-1.288643859999999950e+04
-1.288653440000000046e+04
-1.288649779999999919e+04
-1.288642510000000038e+04
-1.288642590000000018e+04
-1.288650870000000032e+04
-1.288657330000000002e+04
-1.288649730000000091e+04
-1.288636189999999988e+04
-1.288638080000000082e+04
-1.288643009999999958e+04
-1.288634590000000026e+04
-1.288621279999999933e+04
-1.288616049999999996e+04
-1.288622420000000056e+04
-1.288632190000000082e+04
-1.288631710000000021e+04
-1.288623879999999917e+04
-1.288631300000000010e+04
-1.288645950000000084e+04
-1.288646889999999985e+04
-1.288638580000000002e+04
-1.288634310000000005e+04
-1.288639600000000064e+04
-1.288648159999999916e+04
-1.288645999999999913e+04
-1.288632239999999911e+04
-1.288631350000000020e+04
-1.288642629999999917e+04
-1.288642280000000028e+04
-1.288631439999999930e+04
-1.288623929999999928e+04
-1.288627080000000024e+04
-1.288636110000000008e+04
-1.288636640000000079e+04
-1.288622700000000077e+04
-1.288617380000000048e+04
-1.288627380000000085e+04
-1.288627100000000064e+04
-1.288613069999999971e+04
-1.288599419999999918e+04
-1.288595859999999993e+04
-1.288600259999999980e+04
-1.288599459999999999e+04
-1.288584759999999915e+04
-1.288577189999999973e+04
-1.288590949999999975e+04
-1.288600590000000011e+04
-1.288597520000000077e+04
-1.288594640000000072e+04
-1.288601980000000003e+04
-1.288617560000000049e+04
-1.288627460000000065e+04
-1.288619119999999930e+04
-1.288609649999999965e+04
-1.288619599999999991e+04
-1.288625970000000052e+04
-1.288616909999999916e+04
-1.288606010000000060e+04
-1.288605659999999989e+04
-1.288616049999999996e+04
-1.288624569999999949e+04
-1.288616309999999976e+04
-1.288603130000000056e+04
-1.288609629999999925e+04
-1.288616309999999976e+04
-1.288605869999999959e+04
-1.288589680000000044e+04
-1.288581470000000081e+04
-1.288583799999999974e+04
-1.288586399999999958e+04
-1.288574229999999989e+04
-1.288554680000000008e+04
-1.288555769999999939e+04
-1.288564630000000034e+04
-1.288559729999999945e+04
-1.288550129999999990e+04
-1.288550599999999940e+04
-1.288564689999999973e+04
-1.288582589999999982e+04
-1.288587429999999949e+04
-1.288580279999999948e+04
-1.288588760000000002e+04
-1.288605010000000038e+04
-1.288602989999999954e+04
-1.288589290000000074e+04
-1.288580760000000009e+04
-1.288584039999999914e+04
-1.288592369999999937e+04
-1.288590530000000035e+04
-1.288577230000000054e+04
-1.288580940000000010e+04
-1.288600449999999910e+04
-1.288606190000000061e+04
-1.288600590000000011e+04
-1.288599539999999979e+04
-1.288609219999999914e+04
-1.288622179999999935e+04
-1.288622179999999935e+04
-1.288604520000000048e+04
-1.288596249999999964e+04
-1.288603210000000036e+04
-1.288596359999999913e+04
-1.288576610000000073e+04
-1.288561839999999938e+04
-1.288560970000000088e+04
-1.288569210000000021e+04
-1.288572179999999935e+04
-1.288562989999999991e+04
-1.288564110000000073e+04
-1.288585759999999937e+04
-1.288598389999999927e+04
-1.288596149999999943e+04
-1.288594100000000071e+04
-1.288600909999999931e+04
-1.288612529999999970e+04
-1.288615530000000035e+04
-1.288600959999999941e+04
-1.288587900000000081e+04
-1.288594579999999951e+04
-1.288596509999999944e+04
-1.288584549999999945e+04
-1.288574129999999968e+04
-1.288576250000000073e+04
-1.288588910000000033e+04
-1.288599439999999959e+04
-1.288596069999999963e+04
-1.288591109999999935e+04
-1.288605160000000069e+04
-1.288617460000000028e+04
-1.288613099999999940e+04
-1.288604999999999927e+04
-1.288605559999999969e+04
-1.288614910000000054e+04
-1.288622630000000026e+04
-1.288617109999999957e+04
-1.288606450000000041e+04
-1.288613550000000032e+04
-1.288624419999999918e+04
-1.288620679999999993e+04
-1.288612769999999909e+04
-1.288613669999999911e+04
-1.288624760000000060e+04
-1.288636490000000049e+04
-1.288636690000000090e+04
-1.288629409999999916e+04
-1.288636510000000089e+04
-1.288649279999999999e+04
-1.288647370000000046e+04
-1.288638179999999920e+04
-1.288635059999999976e+04
-1.288641079999999965e+04
-1.288648589999999967e+04
-1.288646219999999994e+04
-1.288635599999999977e+04
-1.288637650000000031e+04
-1.288649190000000090e+04
-1.288649159999999938e+04
-1.288641380000000026e+04
-1.288638639999999941e+04
-1.288644909999999982e+04
-1.288653880000000026e+04
-1.288654639999999927e+04
-1.288646160000000054e+04
-1.288646839999999975e+04
-1.288659029999999984e+04
-1.288662550000000010e+04
-1.288657259999999951e+04
-1.288655060000000049e+04
-1.288661249999999927e+04
-1.288671130000000085e+04
-1.288674489999999969e+04
-1.288667009999999937e+04
-1.288662800000000061e+04
-1.288669989999999962e+04
-1.288670900000000074e+04
-1.288660720000000038e+04
-1.288650510000000031e+04
-1.288647789999999986e+04
-1.288650649999999951e+04
-1.288650629999999910e+04
-1.288641660000000047e+04
-1.288633899999999994e+04
-1.288640359999999964e+04
-1.288647559999999976e+04
-1.288645010000000002e+04
-1.288640979999999945e+04
-1.288643850000000020e+04
-1.288653119999999944e+04
-1.288660870000000068e+04
-1.288658729999999923e+04
-1.288651399999999921e+04
-1.288654739999999947e+04
-1.288661540000000059e+04
-1.288657339999999931e+04
-1.288648140000000058e+04
-1.288644709999999941e+04
-1.288649920000000020e+04
-1.288658070000000043e+04
-1.288659770000000026e+04
-1.288654130000000077e+04
-1.288656910000000062e+04
-1.288669169999999940e+04
-1.288671889999999985e+04
-1.288664329999999973e+04
-1.288657389999999941e+04
-1.288656459999999970e+04
-1.288658259999999973e+04
-1.288654049999999916e+04
-1.288638570000000072e+04
-1.288624480000000040e+04
-1.288624699999999939e+04
-1.288622860000000037e+04
-1.288610440000000017e+04
-1.288598149999999987e+04
-1.288595010000000002e+04
-1.288600809999999910e+04
-1.288607489999999962e+04
-1.288605270000000019e+04
-1.288597969999999987e+04
-1.288604880000000048e+04
-1.288617699999999968e+04
-1.288617029999999977e+04
-1.288608450000000084e+04
-1.288603689999999915e+04
-1.288606110000000081e+04
-1.288610169999999925e+04
-1.288605669999999918e+04
-1.288589799999999923e+04
-1.288582550000000083e+04
-1.288592560000000049e+04
-1.288596140000000014e+04
-1.288590070000000014e+04
-1.288587639999999919e+04
-1.288595850000000064e+04
-1.288611360000000059e+04
-1.288623730000000069e+04
-1.288622199999999975e+04
-1.288613919999999962e+04
-1.288621110000000044e+04
-1.288629240000000027e+04
-1.288620559999999932e+04
-1.288605739999999969e+04
-1.288597580000000016e+04
-1.288598710000000028e+04
-1.288602930000000015e+04
-1.288599419999999918e+04
-1.288583970000000045e+04
-1.288577670000000035e+04
-1.288589309999999932e+04
-1.288592469999999958e+04
-1.288584499999999935e+04
-1.288579290000000037e+04
-1.288583539999999994e+04
-1.288593980000000010e+04
-1.288600979999999981e+04
-1.288594419999999991e+04
-1.288581790000000001e+04
-1.288585720000000038e+04
-1.288592360000000008e+04
-1.288585399999999936e+04
-1.288575619999999981e+04
-1.288574920000000020e+04
-1.288585059999999976e+04
-1.288599530000000050e+04
-1.288607120000000032e+04
-1.288603069999999934e+04
-1.288605509999999958e+04
-1.288619470000000001e+04
-1.288621980000000076e+04
-1.288612329999999929e+04
-1.288603579999999965e+04
-1.288602399999999943e+04
-1.288607279999999992e+04
-1.288611330000000089e+04
-1.288606949999999961e+04
-1.288601000000000022e+04
-1.288611130000000048e+04
-1.288625029999999970e+04
-1.288627789999999914e+04
-1.288625950000000012e+04
-1.288627959999999985e+04
-1.288635150000000067e+04
-1.288643280000000050e+04
-1.288644260000000031e+04
-1.288633699999999953e+04
-1.288626209999999992e+04
-1.288630440000000090e+04
-1.288629169999999976e+04
-1.288619210000000021e+04
-1.288610699999999997e+04
-1.288610119999999915e+04
-1.288617170000000078e+04
-1.288625920000000042e+04
-1.288627590000000055e+04
-1.288625669999999991e+04
-1.288636110000000008e+04
-1.288649790000000030e+04
-1.288651809999999932e+04
-1.288646969999999965e+04
-1.288643449999999939e+04
-1.288643959999999970e+04
-1.288645910000000003e+04
-1.288642120000000068e+04
-1.288629500000000007e+04
-1.288623840000000018e+04
-1.288632270000000062e+04
-1.288638190000000031e+04
-1.288638229999999930e+04
-1.288640120000000024e+04
-1.288648250000000007e+04
-1.288661640000000079e+04
-1.288673420000000078e+04
-1.288673270000000048e+04
-1.288665240000000085e+04
-1.288667720000000008e+04
-1.288672769999999946e+04
-1.288666640000000007e+04
-1.288654809999999998e+04
-1.288646459999999934e+04
-1.288645800000000054e+04
-1.288650389999999970e+04
-1.288650209999999970e+04
-1.288639979999999923e+04
-1.288636620000000039e+04
-1.288646819999999934e+04
-1.288651419999999962e+04
-1.288646620000000075e+04
-1.288641300000000047e+04
-1.288642129999999997e+04
-1.288649569999999949e+04
-1.288655229999999938e+04
-1.288647570000000087e+04
-1.288634100000000035e+04
-1.288635469999999987e+04
-1.288640010000000075e+04
-1.288633289999999943e+04
-1.288622210000000086e+04
-1.288617400000000089e+04
-1.288623350000000028e+04
-1.288634510000000046e+04
-1.288637240000000020e+04
-1.288628670000000056e+04
-1.288630980000000091e+04
-1.288645210000000043e+04
-1.288648279999999977e+04
-1.288639999999999964e+04
-1.288632450000000063e+04
-1.288633599999999933e+04
-1.288641619999999966e+04
-1.288644859999999971e+04
-1.288633640000000014e+04
-1.288623029999999926e+04
-1.288630470000000059e+04
-1.288635230000000047e+04
-1.288625779999999941e+04
-1.288613019999999960e+04
-1.288608179999999993e+04
-1.288613069999999971e+04
-1.288619340000000011e+04
-1.288614630000000034e+04
-1.288601039999999921e+04
-1.288602570000000014e+04
-1.288614290000000074e+04
-1.288613299999999981e+04
-1.288603399999999965e+04
-1.288598149999999987e+04
-1.288603399999999965e+04
-1.288614880000000085e+04
-1.288621650000000045e+04
-1.288615689999999995e+04
-1.288612520000000040e+04
-1.288627609999999913e+04
-1.288637600000000020e+04
-1.288632040000000052e+04
-1.288623379999999997e+04
-1.288621329999999944e+04
-1.288625629999999910e+04
-1.288628950000000077e+04
-1.288620730000000003e+04
-1.288604769999999917e+04
-1.288605930000000080e+04
-1.288616179999999986e+04
-1.288613739999999962e+04
-1.288605329999999958e+04
-1.288603210000000036e+04
-1.288609939999999915e+04
-1.288620030000000042e+04
-1.288622470000000067e+04
-1.288611839999999938e+04
-1.288607870000000003e+04
-1.288618380000000070e+04
-1.288619110000000001e+04
-1.288608050000000003e+04
-1.288598680000000058e+04
-1.288597400000000016e+04
-1.288602479999999923e+04
-1.288605700000000070e+04
-1.288597700000000077e+04
-1.288588559999999961e+04
-1.288597750000000087e+04
-1.288607669999999962e+04
-1.288605450000000019e+04
-1.288601679999999942e+04
-1.288604969999999958e+04
-1.288615370000000075e+04
-1.288626089999999931e+04
-1.288625510000000031e+04
-1.288615079999999944e+04
-1.288617129999999997e+04
-1.288624350000000049e+04
-1.288617430000000058e+04
-1.288603950000000077e+04
-1.288595360000000073e+04
-1.288595180000000073e+04
-1.288600259999999980e+04
-1.288600690000000031e+04
-1.288591660000000047e+04
-1.288591870000000017e+04
-1.288606140000000050e+04
-1.288611880000000019e+04
-1.288608519999999953e+04
-1.288606719999999950e+04
-1.288611130000000048e+04
-1.288620169999999962e+04
-1.288625209999999970e+04
-1.288616660000000047e+04
-1.288606450000000041e+04
-1.288611529999999948e+04
-1.288613479999999981e+04
-1.288604260000000068e+04
-1.288594410000000062e+04
-1.288591549999999916e+04
-1.288597110000000066e+04
-1.288605270000000019e+04
-1.288604279999999926e+04
-1.288595550000000003e+04
-1.288600449999999910e+04
-1.288611089999999967e+04
-1.288610139999999956e+04
-1.288603390000000036e+04
-1.288600170000000071e+04
-1.288604720000000088e+04
-1.288614079999999922e+04
-1.288616350000000057e+04
-1.288606029999999919e+04
-1.288604520000000048e+04
-1.288615250000000015e+04
-1.288615610000000015e+04
-1.288606899999999951e+04
-1.288600089999999909e+04
-1.288601440000000002e+04
-1.288609820000000036e+04
-1.288614799999999923e+04
-1.288607370000000083e+04
-1.288604160000000047e+04
-1.288616430000000037e+04
-1.288622589999999946e+04
-1.288619000000000051e+04
-1.288615630000000056e+04
-1.288618800000000010e+04
-1.288628969999999936e+04
-1.288638049999999930e+04
-1.288634120000000075e+04
-1.288625020000000040e+04
-1.288630140000000029e+04
-1.288634909999999945e+04
-1.288627930000000015e+04
-1.288617100000000028e+04
-1.288611019999999917e+04
-1.288613450000000012e+04
-1.288620019999999931e+04
-1.288619150000000081e+04
-1.288610759999999937e+04
-1.288615259999999944e+04
-1.288627800000000025e+04
-1.288630999999999949e+04
-1.288627460000000065e+04
-1.288625430000000051e+04
-1.288629830000000038e+04
-1.288638429999999971e+04
-1.288640530000000035e+04
-1.288630199999999968e+04
-1.288624439999999959e+04
-1.288629989999999998e+04
-1.288629559999999947e+04
-1.288620540000000074e+04
-1.288611460000000079e+04
-1.288609979999999996e+04
-1.288616959999999926e+04
-1.288623819999999978e+04
-1.288620360000000073e+04
-1.288616439999999966e+04
-1.288626870000000054e+04
-1.288637349999999969e+04
-1.288636789999999928e+04
-1.288630940000000010e+04
-1.288628750000000036e+04
-1.288633510000000024e+04
-1.288639029999999912e+04
-1.288633770000000004e+04
-1.288620939999999973e+04
-1.288621210000000065e+04
-1.288629459999999926e+04
-1.288629149999999936e+04
-1.288622589999999946e+04
-1.288620039999999972e+04
-1.288626980000000003e+04
-1.288639049999999952e+04
-1.288643529999999919e+04
-1.288635859999999957e+04
-1.288635189999999966e+04
-1.288646659999999974e+04
-1.288650369999999930e+04
-1.288642859999999928e+04
-1.288635059999999976e+04
-1.288635510000000068e+04
-1.288643169999999918e+04
-1.288646860000000015e+04
-1.288636930000000029e+04
-1.288627820000000065e+04
-1.288636080000000038e+04
-1.288643620000000010e+04
-1.288638969999999972e+04
-1.288631539999999950e+04
-1.288631899999999951e+04
-1.288641239999999925e+04
-1.288649820000000000e+04
-1.288644410000000062e+04
-1.288631500000000051e+04
-1.288634039999999914e+04
-1.288641380000000026e+04
-1.288635239999999976e+04
-1.288622149999999965e+04
-1.288615029999999933e+04
-1.288618870000000061e+04
-1.288627679999999964e+04
-1.288628230000000076e+04
-1.288617189999999937e+04
-1.288615780000000086e+04
-1.288628609999999935e+04
-1.288632459999999992e+04
-1.288624330000000009e+04
-1.288616610000000037e+04
-1.288617439999999988e+04
-1.288625430000000051e+04
-1.288630559999999969e+04
-1.288622489999999925e+04
-1.288610070000000087e+04
-1.288614220000000023e+04
-1.288623409999999967e+04
-1.288620230000000083e+04
-1.288611310000000049e+04
-1.288608189999999922e+04
-1.288615109999999913e+04
-1.288627920000000086e+04
-1.288636180000000058e+04
-1.288631420000000071e+04
-1.288624749999999949e+04
-1.288632250000000022e+04
-1.288638539999999921e+04
-1.288630080000000089e+04
-1.288615359999999964e+04
-1.288605700000000070e+04
-1.288605340000000069e+04
-1.288610629999999946e+04
-1.288611839999999938e+04
-1.288603659999999945e+04
-1.288601269999999931e+04
-1.288616849999999977e+04
-1.288629910000000018e+04
-1.288629960000000028e+04
-1.288625870000000032e+04
-1.288626449999999932e+04
-1.288633499999999913e+04
-1.288641699999999946e+04
-1.288641059999999925e+04
-1.288627510000000075e+04
-1.288617979999999989e+04
-1.288623630000000048e+04
-1.288625809999999910e+04
-1.288617189999999937e+04
-1.288608109999999942e+04
-1.288607500000000073e+04
-1.288616259999999966e+04
-1.288627579999999944e+04
-1.288148910000000069e+04
-1.288255340000000069e+04
-1.288333250000000044e+04
-1.288356019999999990e+04
-1.288293900000000031e+04
-1.288221960000000036e+04
-1.288217890000000079e+04
-1.288184180000000015e+04
-1.288128750000000036e+04
-1.288136969999999928e+04
-1.288192109999999957e+04
-1.288233640000000014e+04
-1.288259180000000015e+04
-1.288318499999999949e+04
-1.288389340000000084e+04
-1.288428470000000016e+04
-1.288448300000000017e+04
-1.288466450000000077e+04
-1.288487089999999989e+04
-1.288503189999999995e+04
-1.288501900000000023e+04
-1.288482170000000042e+04
-1.288469709999999941e+04
-1.288473060000000078e+04
-1.288472630000000026e+04
-1.288468250000000080e+04
-1.288471310000000085e+04
-1.288486490000000049e+04
-1.288508879999999954e+04
-1.288528030000000035e+04
-1.288538040000000001e+04
-1.288546559999999954e+04
-1.288559430000000066e+04
-1.288567540000000008e+04
-1.288566599999999926e+04
-1.288562700000000041e+04
-1.288561789999999928e+04
-1.288564309999999932e+04
-1.288566280000000006e+04
-1.288564919999999984e+04
-1.288564400000000023e+04
-1.288569490000000042e+04
-1.288576070000000072e+04
-1.288579240000000027e+04
-1.288580609999999979e+04
-1.288583539999999994e+04
-1.288588349999999991e+04
-1.288592059999999947e+04
-1.288592079999999987e+04
-1.288590509999999995e+04
-1.288591270000000077e+04
-1.288593020000000070e+04
-1.288592439999999988e+04
-1.288590350000000035e+04
-1.288589849999999933e+04
-1.288592029999999977e+04
-1.288594989999999962e+04
-1.288596340000000055e+04
-1.288596990000000005e+04
-1.288599870000000010e+04
-1.288604030000000057e+04
-1.288605980000000091e+04
-1.288605459999999948e+04
-1.288604809999999998e+04
-1.288605260000000089e+04
-1.288605509999999958e+04
-1.288603600000000006e+04
-1.288600489999999991e+04
-1.288599669999999969e+04
-1.288601260000000002e+04
-1.288602180000000044e+04
-1.288601970000000074e+04
-1.288602839999999924e+04
-1.288605880000000070e+04
-1.288609360000000015e+04
-1.288610369999999966e+04
-1.288608920000000035e+04
-1.288608319999999912e+04
-1.288608790000000045e+04
-1.288606749999999920e+04
-1.288601640000000043e+04
-1.288596490000000085e+04
-1.288593640000000050e+04
-1.288592050000000017e+04
-1.288588860000000022e+04
-1.288584360000000015e+04
-1.288583250000000044e+04
-1.288586349999999948e+04
-1.288588630000000012e+04
-1.288588459999999941e+04
-1.288588999999999942e+04
-1.288592350000000079e+04
-1.288596169999999984e+04
-1.288595119999999952e+04
-1.288588049999999930e+04
-1.288581639999999970e+04
-1.288577560000000085e+04
-1.288568610000000081e+04
-1.288553989999999976e+04
-1.288540580000000045e+04
-1.288533879999999954e+04
-1.288532749999999942e+04
-1.288530500000000029e+04
-1.288524820000000000e+04
-1.288526109999999971e+04
-1.288536189999999988e+04
-1.288539849999999933e+04
-1.288533040000000074e+04
-1.288523910000000069e+04
-1.288518089999999938e+04
-1.288512169999999969e+04
-1.288495050000000083e+04
-1.288462769999999909e+04
-1.288436160000000018e+04
-1.288422270000000026e+04
-1.288399250000000029e+04
-1.288367599999999948e+04
-1.288343579999999929e+04
-1.288336130000000048e+04
-1.288340380000000005e+04
-1.288339999999999964e+04
-1.288327200000000084e+04
-1.288328410000000076e+04
-1.288346630000000005e+04
-1.288347730000000047e+04
-1.288333259999999973e+04
-1.288320930000000044e+04
-1.288317669999999998e+04
-1.288316530000000057e+04
-1.288302200000000084e+04
-1.288270939999999973e+04
-1.288251690000000053e+04
-1.288249970000000030e+04
-1.288239520000000084e+04
-1.288224250000000029e+04
-1.288218779999999970e+04
-1.288227419999999984e+04
-1.288244249999999920e+04
-1.288256840000000011e+04
-1.288255220000000008e+04
-1.288250269999999909e+04
-1.288259490000000005e+04
-1.288270089999999982e+04
-1.288270839999999953e+04
-1.288268080000000009e+04
-1.288269249999999920e+04
-1.288276020000000062e+04
-1.288284740000000056e+04
-1.288288730000000032e+04
-1.288285469999999987e+04
-1.288285100000000057e+04
-1.288294210000000021e+04
-1.288302230000000054e+04