-6.062925183091940085e+01 -4.151786858788511836e+00 1.088668720734919049e+01 -4.152309227542762216e+00 -3.072729723131814339e+01 -5.819187922358330933e-01 1.088668720734919049e+01 -5.819187922358330933e-01 -6.468387810141717864e+01
-6.114587452887383279e+01 -3.506139078534032283e+00 1.063803968032562253e+01 -3.506139078534032283e+00 -3.080408543819306999e+01 2.178277705227490424e-01 1.063803968032562253e+01 2.173054017684978301e-01 -6.527467716247528529e+01
-6.071753215038785356e+01 -2.867282092084818768e+00 1.005194193805577818e+01 -2.867282092084818768e+00 -3.026604562131433696e+01 1.212417878617027656e+00 1.005194193805577818e+01 1.212417878617027656e+00 -6.715311520276259216e+01
-5.936250760186025133e+01 -2.310437000053043199e+00 9.109066336632368532e+00 -2.310437000053043199e+00 -2.936339241396827049e+01 2.529831876838545934e+00 9.109066336632368532e+00 2.529831876838545934e+00 -7.108811902853685183e+01
-5.720721412181980980e+01 -1.853886708837497288e+00 7.923289264482151317e+00 -1.853886708837497288e+00 -2.829096936149056418e+01 4.092759189558126565e+00 7.923289264482151317e+00 4.092759189558126565e+00 -7.621725782652936232e+01
-5.453999926261320041e+01 -1.550390462617551979e+00 6.896834662378550362e+00 -1.550390462617551979e+00 -2.734600428505014946e+01 5.193390154765397781e+00 6.896834662378550362e+00 5.193390154765397781e+00 -7.790555364026921836e+01
-5.150712627543074973e+01 -1.430768017894027855e+00 6.200517112961705379e+00 -1.430768017894027855e+00 -2.666013411071832806e+01 5.334429718413221444e+00 6.200517112961705379e+00 5.334429718413221444e+00 -7.317393746426189693e+01
-4.835724268729603637e+01 -1.458453561869341275e+00 5.635314120861910858e+00 -1.458453561869341275e+00 -2.638118919594818834e+01 5.125482216712741845e+00 5.635314120861910858e+00 5.126004585466994001e+00 -6.663753724231665387e+01
-4.520840383666981666e+01 -1.609940500602188296e+00 5.026232153405015168e+00 -1.609940500602188296e+00 -2.670192361105842238e+01 5.082647978864144100e+00 5.026232153405015168e+00 5.082647978864144100e+00 -6.166458670184527335e+01
-4.213530845541002634e+01 -1.870602508973535416e+00 4.432298879821403581e+00 -1.870602508973535416e+00 -2.751525176142753537e+01 5.239880973893754401e+00 4.432298879821403581e+00 5.239880973893754401e+00 -5.889968888559368310e+01
-3.923772897557864070e+01 -2.259767230890676881e+00 3.775158986973398800e+00 -2.259244862136425613e+00 -2.867804460839069947e+01 5.460320588187759228e+00 3.775158986973398800e+00 5.460320588187759228e+00 -5.817829763597278259e+01
-3.658200622896555387e+01 -2.754972809920811727e+00 3.131600681735924319e+00 -2.754972809920811727e+00 -3.000277176917173350e+01 5.698520740126305384e+00 3.131600681735924319e+00 5.698520740126305384e+00 -5.926377990730676970e+01
-3.414149940910396452e+01 -3.261670501544472689e+00 2.514160814211009676e+00 -3.261148132790221421e+00 -3.131757392362199610e+01 5.881349804114224256e+00 2.513638445456758852e+00 5.881349804114224256e+00 -6.241575297045849169e+01
-3.202538358563236898e+01 -3.766801086905379847e+00 1.927018334432664792e+00 -3.766801086905379847e+00 -3.242395094512603038e+01 5.953959060955140714e+00 1.927018334432664792e+00 5.953959060955140714e+00 -6.778831560793204858e+01
-3.024201665861878396e+01 -4.134026321143970506e+00 1.488750949615910812e+00 -4.134026321143970506e+00 -3.306489740659224452e+01 5.673969408676498460e+00 1.488750949615910812e+00 5.673969408676498460e+00 -7.341945077875995196e+01
-2.881177100947900627e+01 -4.396255435778071430e+00 1.318981104484271638e+00 -4.396255435778071430e+00 -3.309206058181331400e+01 4.672588506776954809e+00 1.318458735730020592e+00 4.673110875531206077e+00 -7.418158679121243892e+01
-2.778845061990091381e+01 -4.494460761577296459e+00 1.469423305708616345e+00 -4.494460761577296459e+00 -3.255245365867182272e+01 3.240775751374424640e+00 1.469423305708616345e+00 3.240775751374424640e+00 -6.968660366088089120e+01
-2.707280542657677103e+01 -4.451104154974447447e+00 1.824111689845178796e+00 -4.451104154974447447e+00 -3.138339238665764697e+01 1.929630178203920687e+00 1.824111689845178796e+00 1.929630178203920687e+00 -6.450000429992076079e+01
-2.665595516068431792e+01 -4.292826422436334610e+00 2.275960662272463964e+00 -4.292826422436334610e+00 -2.967315708523922879e+01 7.950452439703213914e-01 2.275960662272463964e+00 7.950452439703213914e-01 -6.093274807713934393e+01
-2.646581293413688130e+01 -4.012836770157693245e+00 2.764897816251584040e+00 -4.013359138911944513e+00 -2.761554656224376814e+01 -1.452185136818326672e-01 2.764897816251584040e+00 -1.446961449275815104e-01 -5.917184300655856077e+01
-2.655722746613084340e+01 -3.648745748444608861e+00 3.280998145451766490e+00 -3.648745748444608861e+00 -2.534010826872555100e+01 -9.240703262703670040e-01 3.280475776697515222e+00 -9.240703262703670040e-01 -5.897020866741760159e+01
-2.694743692555648451e+01 -3.240253382620173372e+00 3.819560331084750349e+00 -3.240253382620173372e+00 -2.311168316308994619e+01 -1.555091781405812723e+00 3.819560331084750349e+00 -1.555091781405812723e+00 -6.051955439252665059e+01
-2.764741105625309103e+01 -2.839074179355253857e+00 4.340884347827444145e+00 -2.839074179355253857e+00 -2.110213056548559507e+01 -2.121339511014110002e+00 4.340884347827444145e+00 -2.120817142259858734e+00 -6.396353158930478600e+01
-2.871199857741702743e+01 -2.471326576362411487e+00 4.850193883222361890e+00 -2.471326576362411487e+00 -1.945823609585707814e+01 -2.706392515775450036e+00 4.850193883222361890e+00 -2.706392515775450036e+00 -6.876253333461053785e+01
-3.018455609565115338e+01 -2.184546130278504528e+00 5.331817874641965105e+00 -2.184546130278504528e+00 -1.828551824256314262e+01 -3.156674381939981622e+00 5.331817874641965105e+00 -3.156674381939981622e+00 -7.202054725487523967e+01
-3.203060727317487988e+01 -2.011642072621358412e+00 5.769562890704467151e+00 -2.011642072621358412e+00 -1.757300726176450567e+01 -3.074140118768292407e+00 5.769562890704467151e+00 -3.074140118768292407e+00 -7.057776475563343865e+01
-3.420052707833435335e+01 -1.986046003663049841e+00 6.088207830797697895e+00 -1.986046003663049841e+00 -1.726898864679031220e+01 -2.490654220269705732e+00 6.088207830797697895e+00 -2.490654220269705732e+00 -6.644478317199796891e+01
-3.658305096647406174e+01 -2.051864466698700706e+00 6.308125076337451453e+00 -2.051864466698700706e+00 -1.738443214147982374e+01 -1.831947221158946926e+00 6.308125076337451453e+00 -1.831947221158946926e+00 -6.295065857481171889e+01
-3.900840909246237231e+01 -2.208052724219808471e+00 6.354615895465808073e+00 -2.208052724219808471e+00 -1.779449161356701481e+01 -1.300175829331228661e+00 6.354615895465808073e+00 -1.300175829331228661e+00 -6.116729164779813743e+01
-4.137839613050005028e+01 -2.418567332183040541e+00 6.269469788522862963e+00 -2.418567332183040541e+00 -1.842969201873647123e+01 -9.083992636428311895e-01 6.269469788522862963e+00 -9.083992636428311895e-01 -6.093744939592760090e+01
-4.359323964852512034e+01 -2.636395102705789917e+00 6.058955180559630449e+00 -2.636395102705789917e+00 -1.918242539361244425e+01 -6.628859491447686159e-01 6.059477549313881717e+00 -6.623635803905174591e-01 -6.221202915630052388e+01
-4.551869087669502534e+01 -2.865192617067814140e+00 5.720982596559106348e+00 -2.865192617067814140e+00 -1.991687586208962912e+01 -6.169174987706632640e-01 5.720982596559106348e+00 -6.169174987706632640e-01 -6.486931900917636540e+01
-4.704818658914253149e+01 -3.062648006174766291e+00 5.271745467903077298e+00 -3.062648006174766291e+00 -2.060692498645545712e+01 -7.762399688172783030e-01 5.271745467903077298e+00 -7.762399688172783030e-01 -6.870455040288865689e+01
-4.819687547974091757e+01 -3.204209938576840333e+00 4.787509632712217744e+00 -3.204209938576840333e+00 -2.119093325370829817e+01 -9.214584824991109979e-01 4.787509632712217744e+00 -9.214584824991109979e-01 -7.204248674255380536e+01
-4.893602726700635941e+01 -3.277863932926259327e+00 4.359167254226236743e+00 -3.277863932926259327e+00 -2.170076515785746452e+01 -6.419911989747207892e-01 4.359167254226236743e+00 -6.419911989747207892e-01 -7.229374611334861811e+01
-4.921653928803925027e+01 -3.295624470570800213e+00 4.142384221211989903e+00 -3.295624470570800213e+00 -2.209463119856286895e+01 2.873028148381582061e-02 4.142906589966241171e+00 2.873028148381582061e-02 -6.911408750622159403e+01
-4.899505493623674823e+01 -3.275774457909254256e+00 4.014926245174698316e+00 -3.275774457909254256e+00 -2.249581040182778580e+01 6.963175494168452051e-01 4.014926245174698316e+00 6.963175494168452051e-01 -6.512527969875945644e+01
-4.838910718130535571e+01 -3.252267863967950756e+00 3.878588000315135620e+00 -3.252267863967950756e+00 -2.298318044954415384e+01 1.201448134777752363e+00 3.878588000315135620e+00 1.201448134777752363e+00 -6.219896993744423952e+01
-4.739712891698233221e+01 -3.228761270026646812e+00 3.704116836395236145e+00 -3.228761270026646812e+00 -2.350763867881235569e+01 1.482482524564896265e+00 3.704639205149487413e+00 1.481960155810645219e+00 -6.077185850082997121e+01
-4.607919255000656733e+01 -3.238686276357419569e+00 3.472185109507704759e+00 -3.238686276357419569e+00 -2.406396140208987688e+01 1.592179962957647632e+00 3.472707478261956027e+00 1.591657594203396364e+00 -6.075253085692268229e+01
-4.454760736254205256e+01 -3.285699464240027012e+00 3.166077019516503555e+00 -3.285699464240027012e+00 -2.470856444483585790e+01 1.554569412651561455e+00 3.166599388270754378e+00 1.554569412651561455e+00 -6.216397123090941079e+01
-4.287916156146373936e+01 -3.383382421285001218e+00 2.751838597395304564e+00 -3.382860052530749950e+00 -2.541794121310898191e+01 1.364949554858376990e+00 2.751838597395304564e+00 1.364949554858376990e+00 -6.488760191557514645e+01
-4.115221045990927706e+01 -3.528078566212582423e+00 2.280661981060724930e+00 -3.528078566212582423e+00 -2.612157192508534465e+01 1.147644153089879326e+00 2.281184349814976198e+00 1.147121784335628059e+00 -6.786092486477296859e+01
-3.944458700226211079e+01 -3.717698424005766888e+00 1.940599922043195757e+00 -3.717698424005766888e+00 -2.684661975598600492e+01 1.000336164391041782e+00 1.941122290797447025e+00 1.000336164391041782e+00 -6.911095329369608464e+01
-3.777039514488702565e+01 -3.953809100927307973e+00 1.935898603254935013e+00 -3.953809100927307973e+00 -2.753771361786033722e+01 8.686992383197401635e-01 1.936420972009186059e+00 8.681768695654890067e-01 -6.729415476641041494e+01
-3.623515337614276177e+01 -4.173726346467062420e+00 2.150592161252177004e+00 -4.173726346467062420e+00 -2.812015477885042003e+01 6.613188428820150344e-01 2.150592161252177004e+00 6.613188428820150344e-01 -6.385905783845454664e+01
-3.481013141454550208e+01 -4.391554116989810908e+00 2.376777831842945332e+00 -4.391554116989810908e+00 -2.851036423827606825e+01 3.003620336944380909e-01 2.376777831842945332e+00 3.003620336944380909e-01 -6.080163351982229614e+01
-3.356846088569040631e+01 -4.573860812223478511e+00 2.523563451787531609e+00 -4.573860812223478511e+00 -2.860856956407529239e+01 -1.859632765134260346e-01 2.523563451787531609e+00 -1.859632765134260346e-01 -5.894722444223054936e+01
-3.249342598944144100e+01 -4.712810900854297103e+00 2.573188483441394947e+00 -4.712810900854297103e+00 -2.841477075624809601e+01 -7.741504938002735647e-01 2.573188483441394947e+00 -7.741504938002735647e-01 -5.836896223127447314e+01
-3.156569908189131723e+01 -4.793778057763232070e+00 2.567964795898883157e+00 -4.793778057763232070e+00 -2.790284937708192459e+01 -1.382710092502917654e+00 2.567964795898883157e+00 -1.383232461257168922e+00 -5.909244295591238227e+01
-3.082132360708336094e+01 -4.827732026789560038e+00 2.484908163972942674e+00 -4.827732026789560038e+00 -2.711981861445937980e+01 -1.940599922043195757e+00 2.484908163972942674e+00 -1.940599922043195757e+00 -6.104871394058311296e+01
-3.025455350872081084e+01 -4.813628070424777583e+00 2.368419931774925935e+00 -4.813628070424777583e+00 -2.611269165626307043e+01 -2.397150213258741669e+00 2.368419931774925935e+00 -2.397150213258741669e+00 -6.358847082375243076e+01
-2.990613354963526405e+01 -4.735795126041349334e+00 2.375733094334442796e+00 -4.735795126041349334e+00 -2.501415016607280606e+01 -2.764375447497332772e+00 2.375733094334442796e+00 -2.764375447497332772e+00 -6.527519953122954632e+01
-2.975725845467367492e+01 -4.640724012767631024e+00 2.668781965469364081e+00 -4.640724012767631024e+00 -2.391404156961978700e+01 -3.096079606446842991e+00 2.668781965469364081e+00 -3.096601975201094259e+00 -6.446500559338593916e+01
-2.981628612390405664e+01 -4.529981836866377343e+00 3.142048056820948343e+00 -4.529981836866377343e+00 -2.286199089855787392e+01 -3.424127184116594336e+00 3.142048056820948343e+00 -3.424127184116594336e+00 -6.168078013322705999e+01
-3.007747050102965503e+01 -4.403568598337588291e+00 3.653447067232869827e+00 -4.403568598337588291e+00 -2.185434157160731772e+01 -3.680610242453932202e+00 3.653447067232869827e+00 -3.680610242453932202e+00 -5.875551510942035094e+01
-3.048230628557433519e+01 -4.286557997385320284e+00 4.035298626590495097e+00 -4.287080366139571552e+00 -2.092974887658269978e+01 -3.825306387381513407e+00 4.034776257836243829e+00 -3.825306387381513407e+00 -5.690006129432010340e+01
-3.102086847120731861e+01 -4.201934259196626442e+00 4.286557997385320284e+00 -4.201934259196626442e+00 -2.011328651368807741e+01 -3.854036668865329585e+00 4.286557997385320284e+00 -3.854036668865329585e+00 -5.644194389684179924e+01
-3.163308465118971924e+01 -4.167980290170298474e+00 4.415583079685365675e+00 -4.167980290170298474e+00 -1.943316239565302084e+01 -3.739637911684317473e+00 4.415060710931114407e+00 -3.739637911684317473e+00 -5.731221024142429599e+01
-3.237484828222641653e+01 -4.175293452729815336e+00 4.420806767227877465e+00 -4.175293452729815336e+00 -1.894056866039414189e+01 -3.513452241093549144e+00 4.420806767227877465e+00 -3.513452241093549144e+00 -5.946907082772749220e+01
-3.317877379501901203e+01 -4.228052696909186281e+00 4.340884347827444145e+00 -4.228052696909186281e+00 -1.856185131356202689e+01 -3.201075726051333170e+00 4.340884347827444145e+00 -3.201075726051333170e+00 -6.243717008938278923e+01
-3.402971249569420564e+01 -4.317900122640392802e+00 4.301706691258604387e+00 -4.317900122640392802e+00 -1.837484329954009610e+01 -2.868326829593321303e+00 4.301706691258604387e+00 -2.868326829593321303e+00 -6.495759932864481812e+01
-3.492766438425201869e+01 -4.427075192278891791e+00 4.381106741904787327e+00 -4.427075192278891791e+00 -1.836335118694656998e+01 -2.592516127348689636e+00 4.381106741904787327e+00 -2.592516127348689636e+00 -6.538071801958828644e+01
-3.588098736076045014e+01 -4.545130530739663222e+00 4.572293705960724708e+00 -4.545130530739663222e+00 -1.852841971328994930e+01 -2.375210725580191529e+00 4.571771337206473440e+00 -2.375210725580191529e+00 -6.348347470414793747e+01
-3.675699976163970462e+01 -4.656917444149418550e+00 4.730049069744586276e+00 -4.656917444149418550e+00 -1.881833437189936120e+01 -2.176188230210485575e+00 4.730049069744586276e+00 -2.176188230210485575e+00 -6.081991642622109140e+01
-3.747995811752335982e+01 -4.741541182338112392e+00 4.815717545441782654e+00 -4.741541182338112392e+00 -1.916205301219665103e+01 -1.932764390729427850e+00 4.815717545441782654e+00 -1.932764390729427850e+00 -5.877640985959040165e+01
-3.805769795972518921e+01 -4.820941232984294444e+00 4.794300426517483338e+00 -4.820941232984294444e+00 -1.961494672213243717e+01 -1.628223407000980227e+00 4.793778057763232070e+00 -1.628223407000980227e+00 -5.789935272120263932e+01
-3.844163899409981866e+01 -4.864297839587144345e+00 4.646470069064394970e+00 -4.863775470832892189e+00 -2.012686810129861215e+01 -1.266221860304900915e+00 4.645947700310143702e+00 -1.266221860304900915e+00 -5.828903981187404071e+01
-3.861297594549420609e+01 -4.884670221002940238e+00 4.427597561033143059e+00 -4.884670221002940238e+00 -2.071348821232270510e+01 -8.828031946845225075e-01 4.427597561033143059e+00 -8.828031946845225075e-01 -5.991360663759526517e+01
-3.859469303909541793e+01 -4.848104408205356819e+00 4.134548689898221774e+00 -4.848104408205356819e+00 -2.137689653022172465e+01 -4.931161040131296636e-01 4.134548689898221774e+00 -4.931161040131296636e-01 -6.246798984588360781e+01
-3.841813240015851250e+01 -4.789599107729222816e+00 3.834186656203784072e+00 -4.789599107729222816e+00 -2.216724045540378540e+01 -1.540987825041030268e-01 3.834186656203784072e+00 -1.540987825041030268e-01 -6.492469009712698380e+01
-3.813187432282885680e+01 -4.700274050752268451e+00 3.603822035579006045e+00 -4.700274050752268451e+00 -2.309653446921666031e+01 9.454874451946661262e-02 3.603299666824754777e+00 9.507111327371781107e-02 -6.564451424048513672e+01
-3.777143988239553352e+01 -4.589531874851014770e+00 3.474274584524709386e+00 -4.590054243605265150e+00 -2.417627068425388615e+01 2.350659394130385216e-01 3.474274584524709386e+00 2.350659394130385216e-01 -6.397606843940681642e+01
-3.731436722242573012e+01 -4.456850211271210505e+00 3.385471896302005845e+00 -4.456850211271210505e+00 -2.531607930602999801e+01 3.259581026527467729e-01 3.385471896302005845e+00 3.259581026527467729e-01 -6.121169299190948010e+01
-3.676326818669072338e+01 -4.337750135301938315e+00 3.256969182756211723e+00 -4.337750135301938315e+00 -2.646790240915388637e+01 3.896870906713927885e-01 3.256446814001960455e+00 3.896870906713927885e-01 -5.894513496721354073e+01
-3.609150196872368355e+01 -4.213948740544403826e+00 3.064737481191770918e+00 -4.213948740544403826e+00 -2.754868336169961296e+01 3.818515593576247702e-01 3.064737481191770918e+00 3.818515593576247702e-01 -5.781838556429371323e+01
-3.532884358751693554e+01 -4.095371033329382016e+00 2.814522847905448266e+00 -4.095371033329382016e+00 -2.852394582588659588e+01 2.972278211689309280e-01 2.814522847905448266e+00 2.977501899231821403e-01 -5.799860278451037487e+01
-3.449984437452029340e+01 -3.975748588605858114e+00 2.503713439125986095e+00 -3.975748588605858114e+00 -2.931167790729740474e+01 7.051978182391155370e-02 2.503713439125986095e+00 7.104215057816275214e-02 -5.945339976509995239e+01
-3.366823331775238159e+01 -3.832619549941030268e+00 2.165740855125461994e+00 -3.832619549941030268e+00 -2.984971772417613423e+01 -2.831238648041485839e-01 2.165740855125461994e+00 -2.826014960498974271e-01 -6.187666841607126145e+01
-3.283714462973873083e+01 -3.669118129860405642e+00 1.842916964998221996e+00 -3.668595761106154374e+00 -3.012343895140376304e+01 -7.746728625545247215e-01 1.842394596243970950e+00 -7.746728625545247215e-01 -6.443418583688512058e+01
-3.209381389243927885e+01 -3.475841690787463190e+00 1.657476057239047229e+00 -3.475841690787463190e+00 -3.015112449537907580e+01 -1.300698198085479929e+00 1.657476057239047229e+00 -1.300698198085479929e+00 -6.539795618847857384e+01
-3.147950823743986604e+01 -3.253312601476453292e+00 1.663744482290061555e+00 -3.253312601476453292e+00 -2.990143223084700352e+01 -1.731652420342717047e+00 1.663222113535810509e+00 -1.731130051588466001e+00 -6.363809585540629143e+01
-3.099213818972350154e+01 -2.984292693037086774e+00 1.801127464658126343e+00 -2.984815061791338042e+00 -2.940465954555411443e+01 -2.019999972689377810e+00 1.800605095903875075e+00 -2.019477603935126542e+00 -6.033515822227597170e+01
-3.064946428693471603e+01 -2.704303040758445409e+00 1.957838090933485375e+00 -2.704303040758445409e+00 -2.865297090818664216e+01 -2.262901443416184044e+00 1.957315722179234108e+00 -2.262901443416184044e+00 -5.730698655388178508e+01
-3.034701277822327370e+01 -2.414388382149031287e+00 2.085818435725028674e+00 -2.414388382149031287e+00 -2.755181757422511879e+01 -2.533488458118304365e+00 2.085818435725028674e+00 -2.532966089364053097e+00 -5.538466953823738237e+01
-3.016784029551511281e+01 -2.145890842463916037e+00 2.159472430074447225e+00 -2.145890842463916037e+00 -2.623283646974084959e+01 -2.862580773296557801e+00 2.158950061320196401e+00 -2.862580773296557801e+00 -5.492811924702183290e+01
-3.007799286978390541e+01 -1.899332790457351150e+00 2.216410624287827869e+00 -1.899332790457351150e+00 -2.479475528928730554e+01 -3.278908670434761419e+00 2.215888255533576601e+00 -3.278386301680510595e+00 -5.589815802366631203e+01
-3.013075211396327902e+01 -1.682549757443104532e+00 2.267080393450193743e+00 -1.682549757443104532e+00 -2.325272272673776897e+01 -3.788218205829678276e+00 2.266558024695942475e+00 -3.787695837075427008e+00 -5.818874501105781150e+01
-3.034335619694351394e+01 -1.534719399990015942e+00 2.294243568671256117e+00 -1.534719399990015942e+00 -2.177024020217287159e+01 -4.339839610318941610e+00 2.294243568671256117e+00 -4.339839610318941610e+00 -6.109050344092320728e+01
-3.070849195616510130e+01 -1.468900936954365077e+00 2.369464669283428471e+00 -1.468900936954365077e+00 -2.041312617862826784e+01 -4.711243794591542411e+00 2.369464669283428471e+00 -4.711243794591542411e+00 -6.275268081695051592e+01
-3.125436730435760424e+01 -1.487183843353157231e+00 2.513638445456758852e+00 -1.487706212107408277e+00 -1.918921618741770985e+01 -4.609381887512560283e+00 2.513116076702507584e+00 -4.609381887512560283e+00 -6.163167747032744614e+01
-3.192665589107889090e+01 -1.632402357034989926e+00 2.665647752943856919e+00 -1.632402357034989926e+00 -1.807918258463391936e+01 -4.109474989694165359e+00 2.665647752943856919e+00 -4.109474989694165359e+00 -5.849067415101499989e+01
-3.266058399080181829e+01 -1.872169615236288998e+00 2.737734641030522109e+00 -1.872169615236288998e+00 -1.716973858348258730e+01 -3.508750922305288178e+00 2.737212272276270841e+00 -3.508750922305288178e+00 -5.545571168881554769e+01
-3.342951079705958506e+01 -2.184023761524253260e+00 2.731466215979507783e+00 -2.184023761524253260e+00 -1.640916967729284437e+01 -3.027649299639936231e+00 2.731466215979507783e+00 -3.027649299639936231e+00 -5.364831579910640613e+01
-3.417336390311329097e+01 -2.563263477110622190e+00 2.678706971800136838e+00 -2.563263477110622190e+00 -1.580844560990396808e+01 -2.683930659342649072e+00 2.678706971800136838e+00 -2.683930659342649072e+00 -5.322101815812892767e+01
-3.486706960875888228e+01 -2.943547930205493657e+00 2.614977983781490600e+00 -2.943025561451242389e+00 -1.529913607450905033e+01 -2.477595001413425813e+00 2.614455615027239332e+00 -2.477595001413425813e+00 -5.420777273490944026e+01
-3.548659895130079178e+01 -3.312340270706838563e+00 2.553860839534100702e+00 -3.312340270706838563e+00 -1.498362534694132719e+01 -2.436850238581832695e+00 2.553860839534100702e+00 -2.437372607336083963e+00 -5.654432817267503708e+01
-3.600426638676373159e+01 -3.625761523257556629e+00 2.528787139330043399e+00 -3.625761523257556629e+00 -1.488385291487934836e+01 -2.470804207608160219e+00 2.528787139330043399e+00 -2.470804207608160219e+00 -5.977099996768468060e+01
-3.648745748444608950e+01 -3.932391982003009101e+00 2.484908163972942674e+00 -3.932391982003009101e+00 -1.504526485994296792e+01 -2.321406743892318048e+00 2.484908163972942674e+00 -2.321406743892318048e+00 -6.194927767291217435e+01
-3.697952885095071451e+01 -4.212904003035901290e+00 2.339689650291110201e+00 -4.212904003035901290e+00 -1.538637165646899874e+01 -1.633447094543492240e+00 2.339167281536858933e+00 -1.633969463297743507e+00 -6.094685203350412905e+01
-3.746219757987882559e+01 -4.497072605348552798e+00 2.029924979020150566e+00 -4.497072605348552798e+00 -1.597194702998459093e+01 -5.291595480564622589e-01 2.029402610265899298e+00 -5.291595480564622589e-01 -5.740937082971502292e+01
-3.790934523351784691e+01 -4.719079325905311428e+00 1.654864213467791112e+00 -4.719079325905311428e+00 -1.682915415571080686e+01 5.390845543872350154e-01 1.654864213467791112e+00 5.390845543872350154e-01 -5.396173705165712420e+01
-3.830059943045199589e+01 -4.841313614400091225e+00 1.335696904620309988e+00 -4.841313614400091225e+00 -1.793553117721483758e+01 1.368606136138135421e+00 1.335174535866058942e+00 1.368083767383884153e+00 -5.208904506766658216e+01
-3.855133643249256892e+01 -4.874745214672167926e+00 1.101675702715773975e+00 -4.874745214672167926e+00 -1.917145564977316852e+01 1.953659140899475677e+00 1.101675702715773975e+00 1.953136772145224631e+00 -5.191405153499243141e+01
-3.871588259008169786e+01 -4.829299133052313842e+00 9.569795577881924364e-01 -4.829299133052313842e+00 -2.064244606174453978e+01 2.328197537697583641e+00 9.564571890339411686e-01 2.328197537697583641e+00 -5.354018546697641057e+01
-3.879267079695662090e+01 -4.702885894523524790e+00 9.507111327371779996e-01 -4.702885894523524790e+00 -2.226022209366049509e+01 2.474983157642169918e+00 9.501887639829268428e-01 2.474983157642169918e+00 -5.684573494387797865e+01
-3.887102611009430575e+01 -4.531548943129132034e+00 1.035857239680123110e+00 -4.531548943129132034e+00 -2.405246928949635432e+01 2.409687063360770320e+00 1.035857239680123110e+00 2.409687063360770320e+00 -6.144832603758527512e+01
-3.893371036060444368e+01 -4.377972529379279720e+00 1.094362540156257113e+00 -4.377972529379279720e+00 -2.590217704829984058e+01 2.287975143620241791e+00 1.094362540156257113e+00 2.287975143620241791e+00 -6.528407980005181344e+01
-3.900684198619961762e+01 -4.271931672266286562e+00 6.926609681370867744e-01 -4.271931672266286562e+00 -2.778636114488390518e+01 2.384613363156713017e+00 6.921385993828356176e-01 2.384613363156713017e+00 -6.531803376907812719e+01
-3.907213808048101100e+01 -4.224918484383678674e+00 -2.549159520745840068e-01 -4.224918484383678674e+00 -2.976248214221618227e+01 2.558562158322361224e+00 -2.549159520745840068e-01 2.558562158322361224e+00 -6.194666582914091890e+01
-3.907945124304053053e+01 -4.173726346467062420e+00 -1.260475804008137857e+00 -4.173726346467062420e+00 -3.153749116916175055e+01 2.484385795218691406e+00 -1.260475804008137857e+00 2.484385795218691406e+00 -5.826814506170399000e+01
-3.901885646754738701e+01 -4.085968395752860971e+00 -2.042461829122179218e+00 -4.085968395752860971e+00 -3.303877896887969001e+01 2.118727667242853663e+00 -2.042461829122179218e+00 2.118727667242853663e+00 -5.600472124953355291e+01
-3.886998137258580499e+01 -3.920377500655231717e+00 -2.538712145660815711e+00 -3.920377500655231717e+00 -3.413418624654445210e+01 1.520093074870982441e+00 -2.539234514415066979e+00 1.519570706116731396e+00 -5.538049058820337223e+01
-3.864379570199503178e+01 -3.657103648512628258e+00 -2.729376740962502712e+00 -3.657103648512628258e+00 -3.469834450113574320e+01 7.689268062577615526e-01 -2.729899109716753980e+00 7.689268062577615526e-01 -5.626381615164214622e+01
-3.839984949375972434e+01 -3.341070552190654297e+00 -2.525652926804536236e+00 -3.341070552190654297e+00 -3.475841690787463278e+01 -6.477372552714839860e-02 -2.526175295558787504e+00 -6.477372552714839860e-02 -5.890125599185643779e+01
-3.829015205536697408e+01 -2.957129517816024844e+00 -1.890974890389332197e+00 -2.957129517816024844e+00 -3.431649294177811527e+01 -9.209361137448598411e-01 -1.890974890389332197e+00 -9.209361137448598411e-01 -6.297625464377002658e+01
-3.839253633120021192e+01 -2.549159520745839735e+00 -1.089661221367996369e+00 -2.549159520745839735e+00 -3.347809109120494497e+01 -1.706056351384408476e+00 -1.089661221367996369e+00 -1.706056351384408476e+00 -6.665738725497820383e+01
-3.857432065767962115e+01 -2.171486911422224608e+00 -9.251150637788694286e-01 -2.171486911422224608e+00 -3.233671536316608552e+01 -2.324018587663573943e+00 -9.256374325331205855e-01 -2.324018587663573943e+00 -6.619822511999140602e+01
-3.882087870968618404e+01 -1.878960409041554591e+00 -1.514869387328470429e+00 -1.878960409041554591e+00 -3.098116844588422580e+01 -2.813478110396945731e+00 -1.515391756082721697e+00 -2.813478110396945731e+00 -6.174764333377121517e+01
-3.921108816911183226e+01 -1.638670782086004030e+00 -2.076938166902758454e+00 -1.638670782086004030e+00 -2.945689642097923411e+01 -3.271073139120994178e+00 -2.076938166902758454e+00 -3.271073139120994178e+00 -5.716855883400521776e+01
-3.967390688537839338e+01 -1.444349605504559042e+00 -2.174098755193480503e+00 -1.444349605504559042e+00 -2.782710590771549874e+01 -3.663372073563642584e+00 -2.174098755193480503e+00 -3.663894442317893851e+00 -5.454261110638445587e+01
-4.011844269524615925e+01 -1.336219273374561256e+00 -1.864334083922521090e+00 -1.336219273374561256e+00 -2.615552589411166906e+01 -3.952241994664554170e+00 -1.864334083922521090e+00 -3.952241994664554170e+00 -5.389173963858745964e+01
-4.050969689218030112e+01 -1.382187723748666386e+00 -1.171150747031183048e+00 -1.382187723748666386e+00 -2.445364849276127117e+01 -4.102161827134648497e+00 -1.171150747031183048e+00 -4.102161827134648497e+00 -5.506289038561865112e+01
-4.081893919469701615e+01 -1.566061525245087571e+00 -9.768295704497377552e-02 -1.566061525245087571e+00 -2.280975402313275779e+01 -4.083878920735855900e+00 -9.768295704497377552e-02 -4.083878920735855900e+00 -5.806807782882577840e+01
-4.109474989694165004e+01 -1.880527515304308173e+00 1.385321936274173549e+00 -1.880527515304308173e+00 -2.126406487930346501e+01 -3.815903749804991918e+00 1.384799567519922503e+00 -3.815903749804991918e+00 -6.279394794853635631e+01
-4.134339742396521444e+01 -2.336033069011351770e+00 2.903847904882402631e+00 -2.336033069011351770e+00 -1.988501136808030267e+01 -3.364577146131957797e+00 2.903847904882402631e+00 -3.364577146131957797e+00 -6.730146792896994157e+01
-4.136585928039801274e+01 -2.822358379219215951e+00 3.411067965260314860e+00 -2.822358379219215951e+00 -1.872169615236288820e+01 -2.987426905562593937e+00 3.411067965260314860e+00 -2.987949274316845205e+00 -6.732654162917398821e+01
-4.113810650354449905e+01 -3.181225713389788101e+00 2.685497765605401987e+00 -3.181225713389788101e+00 -1.780337188238928547e+01 -2.973845317952063194e+00 2.685497765605401987e+00 -2.973845317952063194e+00 -6.230814500708274295e+01
-4.081005892587474193e+01 -3.455469309371666409e+00 1.781277451996580830e+00 -3.455469309371666409e+00 -1.704854903249630738e+01 -3.048544049809984280e+00 1.781277451996580830e+00 -3.048544049809984280e+00 -5.672350065538320507e+01